Melamine crystal (COD 2205105 supercell)
 2160
    1MEL    N00    1   2.244   0.487   2.620
    1MEL    C01    2   2.146   0.490   2.711
    1MEL    N02    3   2.082   0.608   2.726
    1MEL    C03    4   1.982   0.606   2.817
    1MEL    N04    5   1.913   0.719   2.831
    1MEL    N05    6   1.945   0.500   2.891
    1MEL    C06    7   2.017   0.388   2.868
    1MEL    N07    8   1.985   0.279   2.939
    1MEL    N08    9   2.122   0.377   2.783
    1MEL    H09   10   2.274   0.574   2.576
    1MEL    H0A   11   2.294   0.399   2.604
    1MEL    H0B   12   1.928   0.795   2.764
    1MEL    H0C   13   1.827   0.716   2.885
    1MEL    H0D   14   2.041   0.195   2.929
    1MEL    H0E   15   1.903   0.280   3.001
    2MEL    N00   16   2.871   1.751   0.039
    2MEL    C01   17   2.969   1.748  -0.052
    2MEL    N02   18   3.033   1.629  -0.067
    2MEL    C03   19   3.132   1.632  -0.158
    2MEL    N04   20   3.202   1.519  -0.172
    2MEL    N05   21   3.170   1.738  -0.232
    2MEL    C06   22   3.097   1.850  -0.209
    2MEL    N07   23   3.130   1.959  -0.280
    2MEL    N08   24   2.993   1.860  -0.124
    2MEL    H09   25   2.841   1.664   0.083
    2MEL    H0A   26   2.821   1.839   0.055
    2MEL    H0B   27   3.187   1.443  -0.105
    2MEL    H0C   28   3.287   1.521  -0.226
    2MEL    H0D   29   3.074   2.042  -0.270
    2MEL    H0E   30   3.211   1.958  -0.342
    3MEL    N00   31   0.263   0.860   0.039
    3MEL    C01   32   0.361   0.863  -0.052
    3MEL    N02   33   0.424   0.981  -0.067
    3MEL    C03   34   0.524   0.979  -0.158
    3MEL    N04   35   0.593   1.092  -0.172
    3MEL    N05   36   0.561   0.872  -0.232
    3MEL    C06   37   0.489   0.761  -0.209
    3MEL    N07   38   0.521   0.652  -0.280
    3MEL    N08   39   0.385   0.750  -0.124
    3MEL    H09   40   0.232   0.947   0.084
    3MEL    H0A   41   0.213   0.772   0.055
    3MEL    H0B   42   0.578   1.167  -0.105
    3MEL    H0C   43   0.679   1.089  -0.226
    3MEL    H0D   44   0.465   0.568  -0.270
    3MEL    H0E   45   0.603   0.652  -0.342
    4MEL    N00   46   2.765   2.123   2.620
    4MEL    C01   47   2.667   2.120   2.711
    4MEL    N02   48   2.604   2.002   2.726
    4MEL    C03   49   2.504   2.004   2.817
    4MEL    N04   50   2.434   1.891   2.831
    4MEL    N05   51   2.467   2.111   2.891
    4MEL    C06   52   2.539   2.222   2.868
    4MEL    N07   53   2.507   2.331   2.939
    4MEL    N08   54   2.643   2.233   2.783
    4MEL    H09   55   2.796   2.037   2.576
    4MEL    H0A   56   2.815   2.211   2.604
    4MEL    H0B   57   2.449   1.816   2.764
    4MEL    H0C   58   2.349   1.894   2.885
    4MEL    H0D   59   2.563   2.415   2.929
    4MEL    H0E   60   2.425   2.331   3.001
    5MEL    N00   61   3.103   0.487   0.626
    5MEL    C01   62   3.005   0.490   0.717
    5MEL    N02   63   2.941   0.608   0.732
    5MEL    C03   64   2.841   0.606   0.823
    5MEL    N04   65   2.772   0.719   0.837
    5MEL    N05   66   2.804   0.500   0.897
    5MEL    C06   67   2.876   0.388   0.874
    5MEL    N07   68   2.844   0.279   0.945
    5MEL    N08   69   2.981   0.377   0.789
    5MEL    H09   70   3.133   0.574   0.582
    5MEL    H0A   71   3.153   0.399   0.610
    5MEL    H0B   72   2.787   0.795   0.769
    5MEL    H0C   73   2.686   0.716   0.891
    5MEL    H0D   74   2.900   0.195   0.935
    5MEL    H0E   75   2.762   0.280   1.007
    6MEL    N00   76   2.585   1.751   0.704
    6MEL    C01   77   2.683   1.748   0.613
    6MEL    N02   78   2.746   1.629   0.598
    6MEL    C03   79   2.846   1.632   0.507
    6MEL    N04   80   2.916   1.519   0.493
    6MEL    N05   81   2.884   1.738   0.433
    6MEL    C06   82   2.811   1.850   0.456
    6MEL    N07   83   2.843   1.959   0.385
    6MEL    N08   84   2.707   1.860   0.541
    6MEL    H09   85   2.554   1.664   0.748
    6MEL    H0A   86   2.535   1.839   0.720
    6MEL    H0B   87   2.901   1.443   0.560
    6MEL    H0C   88   3.001   1.521   0.439
    6MEL    H0D   89   2.788   2.042   0.395
    6MEL    H0E   90   2.925   1.958   0.323
    7MEL    N00   91   3.107   0.860   0.704
    7MEL    C01   92   3.204   0.863   0.613
    7MEL    N02   93   3.268   0.981   0.598
    7MEL    C03   94   3.368   0.979   0.507
    7MEL    N04   95   3.437   1.092   0.493
    7MEL    N05   96   3.405   0.872   0.433
    7MEL    C06   97   3.333   0.761   0.456
    7MEL    N07   98   3.365   0.652   0.385
    7MEL    N08   99   3.228   0.750   0.542
    7MEL    H09  100   3.076   0.947   0.749
    7MEL    H0A  101   3.057   0.772   0.720
    7MEL    H0B  102   3.422   1.167   0.560
    7MEL    H0C  103   3.523   1.089   0.439
    7MEL    H0D  104   3.309   0.568   0.395
    7MEL    H0E  105   3.447   0.652   0.323
    8MEL    N00  106   0.494   2.124   0.626
    8MEL    C01  107   0.397   2.120   0.717
    8MEL    N02  108   0.333   2.002   0.732
    8MEL    C03  109   0.233   2.004   0.823
    8MEL    N04  110   0.164   1.891   0.837
    8MEL    N05  111   0.196   2.111   0.897
    8MEL    C06  112   0.268   2.222   0.874
    8MEL    N07  113   0.236   2.331   0.945
    8MEL    N08  114   0.372   2.233   0.789
    8MEL    H09  115   0.525   2.037   0.582
    8MEL    H0A  116   0.544   2.211   0.610
    8MEL    H0B  117   0.179   1.816   0.769
    8MEL    H0C  118   0.078   1.894   0.891
    8MEL    H0D  119   0.292   2.415   0.935
    8MEL    H0E  120   0.154   2.331   1.007
    9MEL    N00  121   2.816   0.487   1.291
    9MEL    C01  122   2.718   0.490   1.382
    9MEL    N02  123   2.654   0.608   1.397
    9MEL    C03  124   2.555   0.606   1.488
    9MEL    N04  125   2.485   0.719   1.502
    9MEL    N05  126   2.517   0.500   1.562
    9MEL    C06  127   2.590   0.388   1.539
    9MEL    N07  128   2.557   0.279   1.609
    9MEL    N08  129   2.694   0.378   1.453
    9MEL    H09  130   2.846   0.574   1.247
    9MEL    H0A  131   2.866   0.399   1.275
    9MEL    H0B  132   2.500   0.795   1.434
    9MEL    H0C  133   2.399   0.716   1.556
    9MEL    H0D  134   2.613   0.195   1.599
    9MEL    H0E  135   2.475   0.280   1.672
   10MEL    N00  136   2.298   1.751   1.369
   10MEL    C01  137   2.396   1.748   1.278
   10MEL    N02  138   2.460   1.629   1.263
   10MEL    C03  139   2.559   1.632   1.172
   10MEL    N04  140   2.629   1.519   1.158
   10MEL    N05  141   2.597   1.738   1.098
   10MEL    C06  142   2.524   1.850   1.121
   10MEL    N07  143   2.557   1.959   1.050
   10MEL    N08  144   2.420   1.860   1.206
   10MEL    H09  145   2.268   1.664   1.413
   10MEL    H0A  146   2.248   1.839   1.385
   10MEL    H0B  147   2.614   1.443   1.225
   10MEL    H0C  148   2.715   1.521   1.104
   10MEL    H0D  149   2.501   2.042   1.060
   10MEL    H0E  150   2.639   1.958   0.988
   11MEL    N00  151   2.820   0.860   1.369
   11MEL    C01  152   2.918   0.863   1.278
   11MEL    N02  153   2.981   0.981   1.263
   11MEL    C03  154   3.081   0.979   1.172
   11MEL    N04  155   3.151   1.092   1.158
   11MEL    N05  156   3.118   0.872   1.098
   11MEL    C06  157   3.046   0.761   1.121
   11MEL    N07  158   3.078   0.652   1.050
   11MEL    N08  159   2.942   0.750   1.206
   11MEL    H09  160   2.789   0.947   1.413
   11MEL    H0A  161   2.770   0.772   1.385
   11MEL    H0B  162   3.136   1.167   1.226
   11MEL    H0C  163   3.236   1.089   1.104
   11MEL    H0D  164   3.022   0.568   1.060
   11MEL    H0E  165   3.160   0.652   0.988
   12MEL    N00  166   0.208   2.123   1.291
   12MEL    C01  167   0.110   2.120   1.382
   12MEL    N02  168   0.046   2.002   1.397
   12MEL    C03  169  -0.054   2.004   1.488
   12MEL    N04  170  -0.123   1.892   1.502
   12MEL    N05  171  -0.091   2.111   1.562
   12MEL    C06  172  -0.019   2.222   1.539
   12MEL    N07  173  -0.051   2.331   1.609
   12MEL    N08  174   0.086   2.233   1.454
   12MEL    H09  175   0.238   2.037   1.247
   12MEL    H0A  176   0.258   2.211   1.275
   12MEL    H0B  177  -0.108   1.816   1.434
   12MEL    H0C  178  -0.209   1.894   1.556
   12MEL    H0D  179   0.005   2.415   1.599
   12MEL    H0E  180  -0.133   2.331   1.672
   13MEL    N00  181   2.530   0.487   1.955
   13MEL    C01  182   2.432   0.490   2.046
   13MEL    N02  183   2.368   0.608   2.061
   13MEL    C03  184   2.269   0.606   2.152
   13MEL    N04  185   2.199   0.719   2.166
   13MEL    N05  186   2.231   0.500   2.226
   13MEL    C06  187   2.304   0.388   2.203
   13MEL    N07  188   2.271   0.279   2.274
   13MEL    N08  189   2.408   0.377   2.118
   13MEL    H09  190   2.560   0.574   1.911
   13MEL    H0A  191   2.580   0.399   1.939
   13MEL    H0B  192   2.214   0.795   2.099
   13MEL    H0C  193   2.113   0.716   2.220
   13MEL    H0D  194   2.327   0.195   2.264
   13MEL    H0E  195   2.189   0.280   2.336
   14MEL    N00  196   2.012   1.751   2.033
   14MEL    C01  197   2.110   1.747   1.942
   14MEL    N02  198   2.174   1.629   1.927
   14MEL    C03  199   2.273   1.632   1.836
   14MEL    N04  200   2.343   1.519   1.822
   14MEL    N05  201   2.311   1.738   1.762
   14MEL    C06  202   2.238   1.850   1.785
   14MEL    N07  203   2.271   1.959   1.715
   14MEL    N08  204   2.134   1.860   1.871
   14MEL    H09  205   1.982   1.664   2.077
   14MEL    H0A  206   1.962   1.839   2.049
   14MEL    H0B  207   2.328   1.443   1.890
   14MEL    H0C  208   2.428   1.521   1.768
   14MEL    H0D  209   2.215   2.042   1.725
   14MEL    H0E  210   2.353   1.958   1.652
   15MEL    N00  211   2.534   0.860   2.033
   15MEL    C01  212   2.631   0.863   1.942
   15MEL    N02  213   2.695   0.981   1.927
   15MEL    C03  214   2.795   0.979   1.836
   15MEL    N04  215   2.864   1.092   1.822
   15MEL    N05  216   2.832   0.872   1.762
   15MEL    C06  217   2.760   0.761   1.785
   15MEL    N07  218   2.792   0.652   1.715
   15MEL    N08  219   2.655   0.750   1.871
   15MEL    H09  220   2.503   0.947   2.078
   15MEL    H0A  221   2.484   0.772   2.049
   15MEL    H0B  222   2.849   1.167   1.889
   15MEL    H0C  223   2.950   1.089   1.768
   15MEL    H0D  224   2.736   0.568   1.725
   15MEL    H0E  225   2.874   0.652   1.652
   16MEL    N00  226   3.051   2.124   1.955
   16MEL    C01  227   2.954   2.120   2.046
   16MEL    N02  228   2.890   2.002   2.061
   16MEL    C03  229   2.790   2.004   2.152
   16MEL    N04  230   2.721   1.891   2.166
   16MEL    N05  231   2.753   2.111   2.226
   16MEL    C06  232   2.825   2.222   2.203
   16MEL    N07  233   2.793   2.331   2.274
   16MEL    N08  234   2.929   2.233   2.118
   16MEL    H09  235   3.082   2.037   1.911
   16MEL    H0A  236   3.101   2.211   1.939
   16MEL    H0B  237   2.736   1.816   2.099
   16MEL    H0C  238   2.635   1.894   2.220
   16MEL    H0D  239   2.849   2.415   2.264
   16MEL    H0E  240   2.711   2.331   2.336
   17MEL    N00  241   2.244   1.233   2.620
   17MEL    C01  242   2.146   1.236   2.711
   17MEL    N02  243   2.082   1.354   2.726
   17MEL    C03  244   1.982   1.352   2.817
   17MEL    N04  245   1.913   1.465   2.831
   17MEL    N05  246   1.945   1.246   2.892
   17MEL    C06  247   2.017   1.134   2.868
   17MEL    N07  248   1.985   1.025   2.939
   17MEL    N08  249   2.122   1.123   2.783
   17MEL    H09  250   2.274   1.320   2.576
   17MEL    H0A  251   2.294   1.145   2.604
   17MEL    H0B  252   1.928   1.541   2.764
   17MEL    H0C  253   1.827   1.462   2.885
   17MEL    H0D  254   2.041   0.941   2.929
   17MEL    H0E  255   1.903   1.026   3.001
   18MEL    N00  256   2.871   0.259   0.039
   18MEL    C01  257   2.969   0.256  -0.052
   18MEL    N02  258   3.033   0.138  -0.067
   18MEL    C03  259   3.132   0.140  -0.158
   18MEL    N04  260   3.202   0.027  -0.172
   18MEL    N05  261   3.170   0.246  -0.232
   18MEL    C06  262   3.097   0.358  -0.209
   18MEL    N07  263   3.130   0.467  -0.280
   18MEL    N08  264   2.993   0.369  -0.124
   18MEL    H09  265   2.841   0.172   0.083
   18MEL    H0A  266   2.821   0.347   0.055
   18MEL    H0B  267   3.187  -0.049  -0.105
   18MEL    H0C  268   3.287   0.030  -0.226
   18MEL    H0D  269   3.074   0.551  -0.270
   18MEL    H0E  270   3.211   0.466  -0.342
   19MEL    N00  271   0.263   1.606   0.039
   19MEL    C01  272   0.360   1.609  -0.052
   19MEL    N02  273   0.424   1.727  -0.067
   19MEL    C03  274   0.524   1.725  -0.158
   19MEL    N04  275   0.593   1.838  -0.172
   19MEL    N05  276   0.561   1.618  -0.232
   19MEL    C06  277   0.489   1.507  -0.209
   19MEL    N07  278   0.521   1.398  -0.280
   19MEL    N08  279   0.385   1.496  -0.124
   19MEL    H09  280   0.232   1.692   0.083
   19MEL    H0A  281   0.213   1.518   0.055
   19MEL    H0B  282   0.578   1.913  -0.105
   19MEL    H0C  283   0.679   1.835  -0.226
   19MEL    H0D  284   0.465   1.314  -0.270
   19MEL    H0E  285   0.603   1.398  -0.342
   20MEL    N00  286   2.765   0.632   2.620
   20MEL    C01  287   2.667   0.629   2.711
   20MEL    N02  288   2.604   0.511   2.726
   20MEL    C03  289   2.504   0.513   2.817
   20MEL    N04  290   2.434   0.400   2.831
   20MEL    N05  291   2.467   0.619   2.892
   20MEL    C06  292   2.539   0.731   2.868
   20MEL    N07  293   2.507   0.840   2.939
   20MEL    N08  294   2.643   0.741   2.783
   20MEL    H09  295   2.796   0.545   2.576
   20MEL    H0A  296   2.815   0.720   2.604
   20MEL    H0B  297   2.449   0.324   2.764
   20MEL    H0C  298   2.349   0.403   2.885
   20MEL    H0D  299   2.563   0.924   2.929
   20MEL    H0E  300   2.425   0.839   3.001
   21MEL    N00  301   3.103   1.233   0.626
   21MEL    C01  302   3.005   1.236   0.717
   21MEL    N02  303   2.941   1.354   0.732
   21MEL    C03  304   2.841   1.352   0.823
   21MEL    N04  305   2.772   1.465   0.837
   21MEL    N05  306   2.804   1.246   0.897
   21MEL    C06  307   2.876   1.134   0.874
   21MEL    N07  308   2.844   1.025   0.945
   21MEL    N08  309   2.981   1.123   0.789
   21MEL    H09  310   3.133   1.320   0.582
   21MEL    H0A  311   3.153   1.145   0.610
   21MEL    H0B  312   2.787   1.540   0.769
   21MEL    H0C  313   2.686   1.462   0.891
   21MEL    H0D  314   2.900   0.941   0.935
   21MEL    H0E  315   2.762   1.026   1.007
   22MEL    N00  316   2.585   0.259   0.704
   22MEL    C01  317   2.683   0.256   0.613
   22MEL    N02  318   2.746   0.138   0.598
   22MEL    C03  319   2.846   0.140   0.507
   22MEL    N04  320   2.916   0.027   0.493
   22MEL    N05  321   2.884   0.246   0.433
   22MEL    C06  322   2.811   0.358   0.456
   22MEL    N07  323   2.843   0.467   0.385
   22MEL    N08  324   2.707   0.369   0.541
   22MEL    H09  325   2.554   0.172   0.748
   22MEL    H0A  326   2.535   0.347   0.720
   22MEL    H0B  327   2.901  -0.049   0.560
   22MEL    H0C  328   3.001   0.030   0.439
   22MEL    H0D  329   2.788   0.551   0.395
   22MEL    H0E  330   2.925   0.466   0.323
   23MEL    N00  331   3.106   1.606   0.704
   23MEL    C01  332   3.204   1.609   0.613
   23MEL    N02  333   3.268   1.727   0.598
   23MEL    C03  334   3.368   1.725   0.507
   23MEL    N04  335   3.437   1.838   0.493
   23MEL    N05  336   3.405   1.618   0.433
   23MEL    C06  337   3.333   1.507   0.456
   23MEL    N07  338   3.365   1.398   0.385
   23MEL    N08  339   3.228   1.496   0.541
   23MEL    H09  340   3.076   1.692   0.748
   23MEL    H0A  341   3.056   1.518   0.720
   23MEL    H0B  342   3.422   1.913   0.560
   23MEL    H0C  343   3.523   1.835   0.439
   23MEL    H0D  344   3.309   1.314   0.395
   23MEL    H0E  345   3.447   1.398   0.323
   24MEL    N00  346   0.494   0.632   0.626
   24MEL    C01  347   0.397   0.629   0.717
   24MEL    N02  348   0.333   0.511   0.732
   24MEL    C03  349   0.233   0.513   0.823
   24MEL    N04  350   0.164   0.400   0.837
   24MEL    N05  351   0.196   0.619   0.897
   24MEL    C06  352   0.268   0.731   0.874
   24MEL    N07  353   0.236   0.840   0.945
   24MEL    N08  354   0.372   0.741   0.789
   24MEL    H09  355   0.525   0.545   0.582
   24MEL    H0A  356   0.544   0.720   0.610
   24MEL    H0B  357   0.179   0.324   0.770
   24MEL    H0C  358   0.078   0.402   0.891
   24MEL    H0D  359   0.292   0.923   0.935
   24MEL    H0E  360   0.154   0.839   1.007
   25MEL    N00  361   2.816   1.233   1.291
   25MEL    C01  362   2.718   1.236   1.382
   25MEL    N02  363   2.654   1.354   1.397
   25MEL    C03  364   2.555   1.352   1.488
   25MEL    N04  365   2.485   1.465   1.502
   25MEL    N05  366   2.517   1.246   1.562
   25MEL    C06  367   2.590   1.134   1.539
   25MEL    N07  368   2.557   1.025   1.609
   25MEL    N08  369   2.694   1.123   1.453
   25MEL    H09  370   2.846   1.320   1.247
   25MEL    H0A  371   2.866   1.145   1.275
   25MEL    H0B  372   2.500   1.541   1.434
   25MEL    H0C  373   2.399   1.462   1.556
   25MEL    H0D  374   2.613   0.941   1.599
   25MEL    H0E  375   2.475   1.026   1.672
   26MEL    N00  376   2.298   0.259   1.369
   26MEL    C01  377   2.396   0.256   1.278
   26MEL    N02  378   2.460   0.138   1.263
   26MEL    C03  379   2.559   0.140   1.172
   26MEL    N04  380   2.629   0.027   1.158
   26MEL    N05  381   2.597   0.246   1.098
   26MEL    C06  382   2.524   0.358   1.121
   26MEL    N07  383   2.557   0.467   1.050
   26MEL    N08  384   2.420   0.369   1.206
   26MEL    H09  385   2.268   0.172   1.413
   26MEL    H0A  386   2.248   0.347   1.385
   26MEL    H0B  387   2.614  -0.049   1.225
   26MEL    H0C  388   2.715   0.030   1.104
   26MEL    H0D  389   2.501   0.551   1.060
   26MEL    H0E  390   2.639   0.466   0.988
   27MEL    N00  391   2.820   1.606   1.369
   27MEL    C01  392   2.917   1.609   1.278
   27MEL    N02  393   2.981   1.727   1.263
   27MEL    C03  394   3.081   1.725   1.172
   27MEL    N04  395   3.151   1.837   1.158
   27MEL    N05  396   3.118   1.618   1.098
   27MEL    C06  397   3.046   1.507   1.121
   27MEL    N07  398   3.078   1.398   1.050
   27MEL    N08  399   2.942   1.496   1.206
   27MEL    H09  400   2.789   1.692   1.413
   27MEL    H0A  401   2.770   1.518   1.385
   27MEL    H0B  402   3.136   1.913   1.226
   27MEL    H0C  403   3.236   1.835   1.104
   27MEL    H0D  404   3.022   1.314   1.060
   27MEL    H0E  405   3.160   1.398   0.988
   28MEL    N00  406   0.208   0.632   1.291
   28MEL    C01  407   0.110   0.629   1.382
   28MEL    N02  408   0.046   0.511   1.397
   28MEL    C03  409  -0.054   0.513   1.488
   28MEL    N04  410  -0.123   0.400   1.502
   28MEL    N05  411  -0.091   0.619   1.562
   28MEL    C06  412  -0.019   0.731   1.539
   28MEL    N07  413  -0.051   0.840   1.609
   28MEL    N08  414   0.086   0.741   1.454
   28MEL    H09  415   0.238   0.545   1.246
   28MEL    H0A  416   0.258   0.720   1.275
   28MEL    H0B  417  -0.108   0.324   1.434
   28MEL    H0C  418  -0.209   0.403   1.556
   28MEL    H0D  419   0.005   0.924   1.599
   28MEL    H0E  420  -0.133   0.839   1.672
   29MEL    N00  421   2.530   1.233   1.955
   29MEL    C01  422   2.432   1.236   2.046
   29MEL    N02  423   2.368   1.354   2.061
   29MEL    C03  424   2.269   1.352   2.152
   29MEL    N04  425   2.199   1.465   2.166
   29MEL    N05  426   2.231   1.246   2.226
   29MEL    C06  427   2.304   1.134   2.203
   29MEL    N07  428   2.271   1.025   2.274
   29MEL    N08  429   2.408   1.123   2.118
   29MEL    H09  430   2.560   1.320   1.911
   29MEL    H0A  431   2.580   1.145   1.939
   29MEL    H0B  432   2.214   1.540   2.099
   29MEL    H0C  433   2.113   1.462   2.220
   29MEL    H0D  434   2.327   0.941   2.264
   29MEL    H0E  435   2.189   1.026   2.336
   30MEL    N00  436   2.012   0.259   2.033
   30MEL    C01  437   2.110   0.256   1.942
   30MEL    N02  438   2.174   0.138   1.927
   30MEL    C03  439   2.273   0.140   1.836
   30MEL    N04  440   2.343   0.027   1.822
   30MEL    N05  441   2.311   0.246   1.762
   30MEL    C06  442   2.238   0.358   1.785
   30MEL    N07  443   2.271   0.467   1.715
   30MEL    N08  444   2.134   0.369   1.871
   30MEL    H09  445   1.982   0.172   2.078
   30MEL    H0A  446   1.962   0.347   2.049
   30MEL    H0B  447   2.328  -0.049   1.890
   30MEL    H0C  448   2.428   0.030   1.768
   30MEL    H0D  449   2.215   0.551   1.725
   30MEL    H0E  450   2.353   0.466   1.652
   31MEL    N00  451   2.533   1.606   2.033
   31MEL    C01  452   2.631   1.609   1.942
   31MEL    N02  453   2.695   1.727   1.927
   31MEL    C03  454   2.795   1.725   1.836
   31MEL    N04  455   2.864   1.838   1.822
   31MEL    N05  456   2.832   1.618   1.762
   31MEL    C06  457   2.760   1.507   1.785
   31MEL    N07  458   2.792   1.398   1.715
   31MEL    N08  459   2.655   1.496   1.871
   31MEL    H09  460   2.503   1.693   2.078
   31MEL    H0A  461   2.483   1.518   2.049
   31MEL    H0B  462   2.849   1.913   1.889
   31MEL    H0C  463   2.950   1.835   1.768
   31MEL    H0D  464   2.736   1.314   1.725
   31MEL    H0E  465   2.874   1.398   1.652
   32MEL    N00  466   3.051   0.632   1.955
   32MEL    C01  467   2.953   0.629   2.046
   32MEL    N02  468   2.890   0.511   2.061
   32MEL    C03  469   2.790   0.513   2.152
   32MEL    N04  470   2.721   0.400   2.166
   32MEL    N05  471   2.753   0.619   2.226
   32MEL    C06  472   2.825   0.731   2.203
   32MEL    N07  473   2.793   0.840   2.274
   32MEL    N08  474   2.929   0.741   2.118
   32MEL    H09  475   3.082   0.545   1.910
   32MEL    H0A  476   3.101   0.720   1.939
   32MEL    H0B  477   2.736   0.324   2.099
   32MEL    H0C  478   2.635   0.403   2.220
   32MEL    H0D  479   2.849   0.924   2.264
   32MEL    H0E  480   2.711   0.839   2.336
   33MEL    N00  481   2.244   1.979   2.620
   33MEL    C01  482   2.146   1.982   2.711
   33MEL    N02  483   2.082   2.100   2.726
   33MEL    C03  484   1.982   2.098   2.817
   33MEL    N04  485   1.913   2.211   2.831
   33MEL    N05  486   1.945   1.992   2.892
   33MEL    C06  487   2.017   1.880   2.868
   33MEL    N07  488   1.985   1.771   2.939
   33MEL    N08  489   2.122   1.869   2.783
   33MEL    H09  490   2.274   2.066   2.576
   33MEL    H0A  491   2.294   1.891   2.604
   33MEL    H0B  492   1.928   2.286   2.764
   33MEL    H0C  493   1.827   2.208   2.885
   33MEL    H0D  494   2.041   1.687   2.929
   33MEL    H0E  495   1.903   1.771   3.001
   34MEL    N00  496   2.871   1.005   0.039
   34MEL    C01  497   2.969   1.002  -0.052
   34MEL    N02  498   3.033   0.884  -0.067
   34MEL    C03  499   3.132   0.886  -0.158
   34MEL    N04  500   3.202   0.773  -0.172
   34MEL    N05  501   3.170   0.992  -0.232
   34MEL    C06  502   3.097   1.104  -0.209
   34MEL    N07  503   3.130   1.213  -0.280
   34MEL    N08  504   2.993   1.115  -0.124
   34MEL    H09  505   2.841   0.918   0.084
   34MEL    H0A  506   2.821   1.093   0.055
   34MEL    H0B  507   3.187   0.697  -0.105
   34MEL    H0C  508   3.287   0.776  -0.226
   34MEL    H0D  509   3.074   1.297  -0.270
   34MEL    H0E  510   3.211   1.212  -0.342
   35MEL    N00  511   0.263   0.114   0.039
   35MEL    C01  512   0.360   0.117  -0.052
   35MEL    N02  513   0.424   0.235  -0.067
   35MEL    C03  514   0.524   0.233  -0.158
   35MEL    N04  515   0.593   0.346  -0.172
   35MEL    N05  516   0.561   0.127  -0.232
   35MEL    C06  517   0.489   0.015  -0.209
   35MEL    N07  518   0.521  -0.094  -0.280
   35MEL    N08  519   0.385   0.005  -0.124
   35MEL    H09  520   0.232   0.201   0.083
   35MEL    H0A  521   0.213   0.026   0.055
   35MEL    H0B  522   0.578   0.422  -0.105
   35MEL    H0C  523   0.679   0.343  -0.226
   35MEL    H0D  524   0.465  -0.178  -0.270
   35MEL    H0E  525   0.603  -0.093  -0.342
   36MEL    N00  526   2.765   1.378   2.620
   36MEL    C01  527   2.667   1.375   2.711
   36MEL    N02  528   2.604   1.257   2.726
   36MEL    C03  529   2.504   1.259   2.817
   36MEL    N04  530   2.434   1.146   2.831
   36MEL    N05  531   2.467   1.365   2.891
   36MEL    C06  532   2.539   1.477   2.868
   36MEL    N07  533   2.507   1.586   2.939
   36MEL    N08  534   2.643   1.487   2.783
   36MEL    H09  535   2.796   1.291   2.576
   36MEL    H0A  536   2.815   1.466   2.604
   36MEL    H0B  537   2.449   1.070   2.764
   36MEL    H0C  538   2.349   1.148   2.885
   36MEL    H0D  539   2.563   1.669   2.929
   36MEL    H0E  540   2.425   1.585   3.001
   37MEL    N00  541   3.103   1.979   0.626
   37MEL    C01  542   3.005   1.982   0.717
   37MEL    N02  543   2.941   2.100   0.732
   37MEL    C03  544   2.841   2.098   0.823
   37MEL    N04  545   2.772   2.211   0.837
   37MEL    N05  546   2.804   1.991   0.897
   37MEL    C06  547   2.876   1.880   0.874
   37MEL    N07  548   2.844   1.771   0.945
   37MEL    N08  549   2.981   1.869   0.789
   37MEL    H09  550   3.133   2.066   0.582
   37MEL    H0A  551   3.153   1.891   0.610
   37MEL    H0B  552   2.787   2.286   0.769
   37MEL    H0C  553   2.686   2.208   0.891
   37MEL    H0D  554   2.900   1.687   0.935
   37MEL    H0E  555   2.762   1.771   1.007
   38MEL    N00  556   2.585   1.005   0.704
   38MEL    C01  557   2.683   1.002   0.613
   38MEL    N02  558   2.746   0.884   0.598
   38MEL    C03  559   2.846   0.886   0.507
   38MEL    N04  560   2.916   0.773   0.493
   38MEL    N05  561   2.884   0.992   0.433
   38MEL    C06  562   2.811   1.104   0.456
   38MEL    N07  563   2.843   1.213   0.385
   38MEL    N08  564   2.707   1.115   0.541
   38MEL    H09  565   2.554   0.918   0.748
   38MEL    H0A  566   2.535   1.093   0.720
   38MEL    H0B  567   2.901   0.697   0.560
   38MEL    H0C  568   3.001   0.776   0.439
   38MEL    H0D  569   2.788   1.297   0.395
   38MEL    H0E  570   2.925   1.212   0.323
   39MEL    N00  571   3.106   0.114   0.704
   39MEL    C01  572   3.204   0.117   0.613
   39MEL    N02  573   3.268   0.235   0.598
   39MEL    C03  574   3.368   0.233   0.507
   39MEL    N04  575   3.437   0.346   0.493
   39MEL    N05  576   3.405   0.127   0.433
   39MEL    C06  577   3.333   0.015   0.456
   39MEL    N07  578   3.365  -0.094   0.385
   39MEL    N08  579   3.228   0.005   0.541
   39MEL    H09  580   3.076   0.201   0.748
   39MEL    H0A  581   3.056   0.026   0.720
   39MEL    H0B  582   3.422   0.422   0.560
   39MEL    H0C  583   3.523   0.343   0.439
   39MEL    H0D  584   3.309  -0.178   0.395
   39MEL    H0E  585   3.447  -0.093   0.323
   40MEL    N00  586   0.494   1.378   0.626
   40MEL    C01  587   0.397   1.375   0.717
   40MEL    N02  588   0.333   1.257   0.732
   40MEL    C03  589   0.233   1.259   0.823
   40MEL    N04  590   0.164   1.146   0.837
   40MEL    N05  591   0.196   1.365   0.897
   40MEL    C06  592   0.268   1.477   0.874
   40MEL    N07  593   0.236   1.586   0.945
   40MEL    N08  594   0.372   1.487   0.789
   40MEL    H09  595   0.525   1.291   0.582
   40MEL    H0A  596   0.544   1.466   0.610
   40MEL    H0B  597   0.179   1.070   0.769
   40MEL    H0C  598   0.078   1.148   0.891
   40MEL    H0D  599   0.292   1.669   0.935
   40MEL    H0E  600   0.154   1.585   1.007
   41MEL    N00  601   2.816   1.979   1.291
   41MEL    C01  602   2.718   1.982   1.382
   41MEL    N02  603   2.654   2.100   1.397
   41MEL    C03  604   2.555   2.098   1.488
   41MEL    N04  605   2.485   2.211   1.502
   41MEL    N05  606   2.517   1.992   1.562
   41MEL    C06  607   2.590   1.880   1.539
   41MEL    N07  608   2.557   1.771   1.609
   41MEL    N08  609   2.694   1.869   1.453
   41MEL    H09  610   2.846   2.066   1.247
   41MEL    H0A  611   2.866   1.891   1.275
   41MEL    H0B  612   2.500   2.286   1.434
   41MEL    H0C  613   2.399   2.208   1.556
   41MEL    H0D  614   2.613   1.687   1.599
   41MEL    H0E  615   2.475   1.771   1.672
   42MEL    N00  616   2.298   1.005   1.369
   42MEL    C01  617   2.396   1.002   1.278
   42MEL    N02  618   2.460   0.884   1.263
   42MEL    C03  619   2.559   0.886   1.172
   42MEL    N04  620   2.629   0.773   1.158
   42MEL    N05  621   2.597   0.992   1.098
   42MEL    C06  622   2.524   1.104   1.121
   42MEL    N07  623   2.557   1.213   1.050
   42MEL    N08  624   2.420   1.115   1.206
   42MEL    H09  625   2.268   0.918   1.413
   42MEL    H0A  626   2.248   1.093   1.385
   42MEL    H0B  627   2.614   0.697   1.225
   42MEL    H0C  628   2.714   0.776   1.104
   42MEL    H0D  629   2.501   1.297   1.060
   42MEL    H0E  630   2.639   1.212   0.988
   43MEL    N00  631   2.820   0.114   1.369
   43MEL    C01  632   2.918   0.117   1.278
   43MEL    N02  633   2.981   0.235   1.263
   43MEL    C03  634   3.081   0.233   1.172
   43MEL    N04  635   3.151   0.346   1.158
   43MEL    N05  636   3.118   0.127   1.098
   43MEL    C06  637   3.046   0.015   1.121
   43MEL    N07  638   3.078  -0.094   1.050
   43MEL    N08  639   2.942   0.005   1.206
   43MEL    H09  640   2.789   0.201   1.413
   43MEL    H0A  641   2.770   0.026   1.385
   43MEL    H0B  642   3.136   0.422   1.226
   43MEL    H0C  643   3.236   0.343   1.104
   43MEL    H0D  644   3.022  -0.178   1.060
   43MEL    H0E  645   3.160  -0.093   0.988
   44MEL    N00  646   0.208   1.378   1.291
   44MEL    C01  647   0.110   1.375   1.382
   44MEL    N02  648   0.046   1.256   1.396
   44MEL    C03  649  -0.054   1.259   1.488
   44MEL    N04  650  -0.123   1.146   1.502
   44MEL    N05  651  -0.091   1.365   1.562
   44MEL    C06  652  -0.019   1.477   1.539
   44MEL    N07  653  -0.051   1.586   1.609
   44MEL    N08  654   0.086   1.487   1.453
   44MEL    H09  655   0.238   1.291   1.246
   44MEL    H0A  656   0.258   1.466   1.275
   44MEL    H0B  657  -0.108   1.070   1.434
   44MEL    H0C  658  -0.209   1.149   1.556
   44MEL    H0D  659   0.005   1.669   1.599
   44MEL    H0E  660  -0.133   1.585   1.672
   45MEL    N00  661   2.530   1.979   1.955
   45MEL    C01  662   2.432   1.982   2.046
   45MEL    N02  663   2.368   2.100   2.061
   45MEL    C03  664   2.269   2.098   2.152
   45MEL    N04  665   2.199   2.211   2.166
   45MEL    N05  666   2.231   1.992   2.226
   45MEL    C06  667   2.304   1.880   2.203
   45MEL    N07  668   2.271   1.771   2.274
   45MEL    N08  669   2.408   1.869   2.118
   45MEL    H09  670   2.560   2.066   1.911
   45MEL    H0A  671   2.580   1.891   1.939
   45MEL    H0B  672   2.214   2.286   2.099
   45MEL    H0C  673   2.113   2.208   2.220
   45MEL    H0D  674   2.327   1.687   2.264
   45MEL    H0E  675   2.189   1.771   2.336
   46MEL    N00  676   2.012   1.005   2.033
   46MEL    C01  677   2.110   1.002   1.942
   46MEL    N02  678   2.174   0.884   1.928
   46MEL    C03  679   2.273   0.886   1.836
   46MEL    N04  680   2.343   0.773   1.822
   46MEL    N05  681   2.311   0.992   1.762
   46MEL    C06  682   2.238   1.104   1.785
   46MEL    N07  683   2.271   1.213   1.715
   46MEL    N08  684   2.134   1.114   1.871
   46MEL    H09  685   1.982   0.918   2.078
   46MEL    H0A  686   1.962   1.093   2.049
   46MEL    H0B  687   2.328   0.697   1.890
   46MEL    H0C  688   2.428   0.776   1.768
   46MEL    H0D  689   2.215   1.297   1.725
   46MEL    H0E  690   2.353   1.212   1.652
   47MEL    N00  691   2.533   0.114   2.033
   47MEL    C01  692   2.631   0.117   1.942
   47MEL    N02  693   2.695   0.235   1.927
   47MEL    C03  694   2.795   0.233   1.836
   47MEL    N04  695   2.864   0.346   1.822
   47MEL    N05  696   2.832   0.127   1.762
   47MEL    C06  697   2.760   0.015   1.785
   47MEL    N07  698   2.792  -0.094   1.715
   47MEL    N08  699   2.655   0.005   1.871
   47MEL    H09  700   2.503   0.201   2.077
   47MEL    H0A  701   2.483   0.026   2.049
   47MEL    H0B  702   2.849   0.422   1.889
   47MEL    H0C  703   2.950   0.343   1.768
   47MEL    H0D  704   2.736  -0.178   1.725
   47MEL    H0E  705   2.874  -0.093   1.652
   48MEL    N00  706   3.051   1.378   1.955
   48MEL    C01  707   2.954   1.375   2.046
   48MEL    N02  708   2.890   1.257   2.061
   48MEL    C03  709   2.790   1.259   2.152
   48MEL    N04  710   2.721   1.146   2.166
   48MEL    N05  711   2.753   1.365   2.226
   48MEL    C06  712   2.825   1.477   2.203
   48MEL    N07  713   2.793   1.586   2.274
   48MEL    N08  714   2.929   1.487   2.118
   48MEL    H09  715   3.082   1.291   1.910
   48MEL    H0A  716   3.101   1.466   1.939
   48MEL    H0B  717   2.736   1.070   2.099
   48MEL    H0C  718   2.635   1.148   2.220
   48MEL    H0D  719   2.849   1.669   2.264
   48MEL    H0E  720   2.711   1.585   2.336
   49MEL    N00  721   0.157   0.487   2.620
   49MEL    C01  722   0.059   0.490   2.711
   49MEL    N02  723  -0.005   0.608   2.726
   49MEL    C03  724  -0.105   0.606   2.817
   49MEL    N04  725  -0.174   0.719   2.831
   49MEL    N05  726  -0.142   0.500   2.891
   49MEL    C06  727  -0.069   0.388   2.868
   49MEL    N07  728  -0.102   0.279   2.939
   49MEL    N08  729   0.035   0.377   2.783
   49MEL    H09  730   0.187   0.574   2.576
   49MEL    H0A  731   0.207   0.399   2.604
   49MEL    H0B  732  -0.159   0.795   2.764
   49MEL    H0C  733  -0.260   0.716   2.885
   49MEL    H0D  734  -0.046   0.195   2.929
   49MEL    H0E  735  -0.184   0.280   3.001
   50MEL    N00  736   0.784   1.751   0.039
   50MEL    C01  737   0.882   1.748  -0.052
   50MEL    N02  738   0.946   1.629  -0.067
   50MEL    C03  739   1.045   1.632  -0.158
   50MEL    N04  740   1.115   1.519  -0.172
   50MEL    N05  741   1.083   1.738  -0.232
   50MEL    C06  742   1.010   1.850  -0.209
   50MEL    N07  743   1.043   1.959  -0.280
   50MEL    N08  744   0.906   1.860  -0.124
   50MEL    H09  745   0.754   1.664   0.083
   50MEL    H0A  746   0.734   1.839   0.055
   50MEL    H0B  747   1.100   1.443  -0.105
   50MEL    H0C  748   1.201   1.521  -0.226
   50MEL    H0D  749   0.987   2.042  -0.270
   50MEL    H0E  750   1.125   1.958  -0.342
   51MEL    N00  751   1.306   0.860   0.039
   51MEL    C01  752   1.404   0.863  -0.052
   51MEL    N02  753   1.467   0.981  -0.067
   51MEL    C03  754   1.567   0.979  -0.158
   51MEL    N04  755   1.637   1.092  -0.172
   51MEL    N05  756   1.604   0.872  -0.232
   51MEL    C06  757   1.532   0.761  -0.209
   51MEL    N07  758   1.564   0.652  -0.280
   51MEL    N08  759   1.428   0.750  -0.124
   51MEL    H09  760   1.275   0.947   0.084
   51MEL    H0A  761   1.256   0.772   0.055
   51MEL    H0B  762   1.622   1.167  -0.104
   51MEL    H0C  763   1.722   1.089  -0.226
   51MEL    H0D  764   1.508   0.568  -0.270
   51MEL    H0E  765   1.646   0.652  -0.342
   52MEL    N00  766   0.679   2.124   2.620
   52MEL    C01  767   0.581   2.120   2.711
   52MEL    N02  768   0.517   2.002   2.726
   52MEL    C03  769   0.417   2.004   2.817
   52MEL    N04  770   0.348   1.892   2.831
   52MEL    N05  771   0.380   2.111   2.891
   52MEL    C06  772   0.452   2.222   2.868
   52MEL    N07  773   0.420   2.331   2.939
   52MEL    N08  774   0.557   2.233   2.783
   52MEL    H09  775   0.709   2.037   2.576
   52MEL    H0A  776   0.729   2.211   2.604
   52MEL    H0B  777   0.363   1.816   2.764
   52MEL    H0C  778   0.262   1.894   2.885
   52MEL    H0D  779   0.476   2.415   2.929
   52MEL    H0E  780   0.338   2.331   3.001
   53MEL    N00  781   1.016   0.487   0.626
   53MEL    C01  782   0.918   0.490   0.717
   53MEL    N02  783   0.854   0.608   0.732
   53MEL    C03  784   0.755   0.606   0.823
   53MEL    N04  785   0.685   0.719   0.837
   53MEL    N05  786   0.717   0.500   0.897
   53MEL    C06  787   0.790   0.388   0.874
   53MEL    N07  788   0.757   0.279   0.945
   53MEL    N08  789   0.894   0.377   0.789
   53MEL    H09  790   1.046   0.574   0.582
   53MEL    H0A  791   1.066   0.399   0.610
   53MEL    H0B  792   0.700   0.795   0.769
   53MEL    H0C  793   0.600   0.716   0.891
   53MEL    H0D  794   0.813   0.195   0.935
   53MEL    H0E  795   0.675   0.280   1.007
   54MEL    N00  796   0.498   1.751   0.704
   54MEL    C01  797   0.596   1.748   0.613
   54MEL    N02  798   0.660   1.629   0.598
   54MEL    C03  799   0.759   1.632   0.507
   54MEL    N04  800   0.829   1.519   0.493
   54MEL    N05  801   0.797   1.738   0.433
   54MEL    C06  802   0.724   1.850   0.456
   54MEL    N07  803   0.757   1.959   0.385
   54MEL    N08  804   0.620   1.860   0.541
   54MEL    H09  805   0.468   1.664   0.748
   54MEL    H0A  806   0.448   1.839   0.720
   54MEL    H0B  807   0.814   1.443   0.560
   54MEL    H0C  808   0.915   1.521   0.439
   54MEL    H0D  809   0.701   2.042   0.395
   54MEL    H0E  810   0.839   1.958   0.323
   55MEL    N00  811   1.020   0.860   0.704
   55MEL    C01  812   1.117   0.863   0.613
   55MEL    N02  813   1.181   0.981   0.598
   55MEL    C03  814   1.281   0.979   0.507
   55MEL    N04  815   1.350   1.092   0.493
   55MEL    N05  816   1.318   0.872   0.433
   55MEL    C06  817   1.246   0.761   0.456
   55MEL    N07  818   1.278   0.652   0.385
   55MEL    N08  819   1.142   0.750   0.541
   55MEL    H09  820   0.989   0.947   0.749
   55MEL    H0A  821   0.970   0.772   0.720
   55MEL    H0B  822   1.335   1.167   0.560
   55MEL    H0C  823   1.436   1.089   0.439
   55MEL    H0D  824   1.222   0.568   0.395
   55MEL    H0E  825   1.360   0.652   0.323
   56MEL    N00  826   1.537   2.124   0.626
   56MEL    C01  827   1.440   2.120   0.717
   56MEL    N02  828   1.376   2.002   0.732
   56MEL    C03  829   1.276   2.004   0.823
   56MEL    N04  830   1.207   1.891   0.837
   56MEL    N05  831   1.239   2.111   0.897
   56MEL    C06  832   1.311   2.222   0.874
   56MEL    N07  833   1.279   2.331   0.945
   56MEL    N08  834   1.416   2.233   0.789
   56MEL    H09  835   1.568   2.037   0.582
   56MEL    H0A  836   1.587   2.211   0.610
   56MEL    H0B  837   1.222   1.816   0.769
   56MEL    H0C  838   1.121   1.894   0.891
   56MEL    H0D  839   1.335   2.415   0.935
   56MEL    H0E  840   1.197   2.331   1.007
   57MEL    N00  841   0.730   0.487   1.291
   57MEL    C01  842   0.632   0.490   1.382
   57MEL    N02  843   0.568   0.608   1.396
   57MEL    C03  844   0.468   0.606   1.487
   57MEL    N04  845   0.399   0.719   1.502
   57MEL    N05  846   0.431   0.500   1.562
   57MEL    C06  847   0.503   0.388   1.539
   57MEL    N07  848   0.471   0.279   1.609
   57MEL    N08  849   0.608   0.377   1.454
   57MEL    H09  850   0.760   0.574   1.247
   57MEL    H0A  851   0.780   0.399   1.275
   57MEL    H0B  852   0.414   0.795   1.434
   57MEL    H0C  853   0.313   0.716   1.556
   57MEL    H0D  854   0.527   0.195   1.600
   57MEL    H0E  855   0.389   0.280   1.672
   58MEL    N00  856   0.212   1.751   1.369
   58MEL    C01  857   0.310   1.748   1.278
   58MEL    N02  858   0.373   1.629   1.263
   58MEL    C03  859   0.473   1.632   1.172
   58MEL    N04  860   0.543   1.519   1.158
   58MEL    N05  861   0.511   1.738   1.098
   58MEL    C06  862   0.438   1.850   1.121
   58MEL    N07  863   0.471   1.959   1.050
   58MEL    N08  864   0.334   1.860   1.206
   58MEL    H09  865   0.181   1.664   1.413
   58MEL    H0A  866   0.162   1.839   1.385
   58MEL    H0B  867   0.528   1.443   1.225
   58MEL    H0C  868   0.628   1.521   1.104
   58MEL    H0D  869   0.415   2.042   1.060
   58MEL    H0E  870   0.552   1.958   0.988
   59MEL    N00  871   0.734   0.860   1.369
   59MEL    C01  872   0.831   0.863   1.278
   59MEL    N02  873   0.895   0.981   1.263
   59MEL    C03  874   0.995   0.979   1.172
   59MEL    N04  875   1.064   1.092   1.158
   59MEL    N05  876   1.032   0.872   1.098
   59MEL    C06  877   0.960   0.761   1.121
   59MEL    N07  878   0.992   0.652   1.050
   59MEL    N08  879   0.856   0.750   1.206
   59MEL    H09  880   0.703   0.947   1.414
   59MEL    H0A  881   0.684   0.772   1.385
   59MEL    H0B  882   1.049   1.167   1.225
   59MEL    H0C  883   1.150   1.089   1.104
   59MEL    H0D  884   0.936   0.568   1.060
   59MEL    H0E  885   1.074   0.652   0.988
   60MEL    N00  886   1.251   2.123   1.291
   60MEL    C01  887   1.154   2.120   1.382
   60MEL    N02  888   1.090   2.002   1.397
   60MEL    C03  889   0.990   2.004   1.488
   60MEL    N04  890   0.921   1.891   1.502
   60MEL    N05  891   0.953   2.111   1.562
   60MEL    C06  892   1.025   2.222   1.539
   60MEL    N07  893   0.993   2.331   1.609
   60MEL    N08  894   1.129   2.233   1.454
   60MEL    H09  895   1.282   2.037   1.247
   60MEL    H0A  896   1.301   2.211   1.275
   60MEL    H0B  897   0.936   1.816   1.434
   60MEL    H0C  898   0.835   1.894   1.556
   60MEL    H0D  899   1.049   2.415   1.600
   60MEL    H0E  900   0.911   2.331   1.672
   61MEL    N00  901   0.443   0.487   1.955
   61MEL    C01  902   0.345   0.490   2.046
   61MEL    N02  903   0.281   0.608   2.061
   61MEL    C03  904   0.182   0.606   2.152
   61MEL    N04  905   0.112   0.719   2.166
   61MEL    N05  906   0.144   0.500   2.226
   61MEL    C06  907   0.217   0.388   2.203
   61MEL    N07  908   0.184   0.279   2.274
   61MEL    N08  909   0.321   0.377   2.118
   61MEL    H09  910   0.473   0.574   1.911
   61MEL    H0A  911   0.493   0.399   1.939
   61MEL    H0B  912   0.127   0.795   2.099
   61MEL    H0C  913   0.027   0.716   2.220
   61MEL    H0D  914   0.240   0.195   2.264
   61MEL    H0E  915   0.102   0.280   2.336
   62MEL    N00  916   3.055   1.751   2.033
   62MEL    C01  917   3.153   1.748   1.942
   62MEL    N02  918   3.217   1.629   1.927
   62MEL    C03  919   3.316   1.632   1.836
   62MEL    N04  920   3.386   1.519   1.822
   62MEL    N05  921   3.354   1.738   1.762
   62MEL    C06  922   3.281   1.850   1.785
   62MEL    N07  923   3.314   1.958   1.715
   62MEL    N08  924   3.177   1.860   1.870
   62MEL    H09  925   3.025   1.664   2.077
   62MEL    H0A  926   3.005   1.839   2.049
   62MEL    H0B  927   3.371   1.443   1.890
   62MEL    H0C  928   3.472   1.521   1.768
   62MEL    H0D  929   3.258   2.042   1.724
   62MEL    H0E  930   3.396   1.958   1.652
   63MEL    N00  931   0.447   0.860   2.033
   63MEL    C01  932   0.545   0.863   1.942
   63MEL    N02  933   0.608   0.981   1.928
   63MEL    C03  934   0.708   0.979   1.837
   63MEL    N04  935   0.778   1.092   1.822
   63MEL    N05  936   0.746   0.872   1.762
   63MEL    C06  937   0.673   0.761   1.785
   63MEL    N07  938   0.705   0.652   1.715
   63MEL    N08  939   0.569   0.750   1.871
   63MEL    H09  940   0.416   0.947   2.078
   63MEL    H0A  941   0.397   0.772   2.049
   63MEL    H0B  942   0.763   1.167   1.890
   63MEL    H0C  943   0.863   1.089   1.768
   63MEL    H0D  944   0.649   0.568   1.724
   63MEL    H0E  945   0.787   0.652   1.652
   64MEL    N00  946   0.965   2.124   1.955
   64MEL    C01  947   0.867   2.120   2.046
   64MEL    N02  948   0.803   2.002   2.061
   64MEL    C03  949   0.703   2.004   2.152
   64MEL    N04  950   0.634   1.892   2.166
   64MEL    N05  951   0.666   2.111   2.226
   64MEL    C06  952   0.738   2.222   2.203
   64MEL    N07  953   0.706   2.331   2.274
   64MEL    N08  954   0.843   2.233   2.118
   64MEL    H09  955   0.995   2.037   1.911
   64MEL    H0A  956   1.015   2.211   1.939
   64MEL    H0B  957   0.649   1.816   2.098
   64MEL    H0C  958   0.548   1.894   2.220
   64MEL    H0D  959   0.762   2.415   2.264
   64MEL    H0E  960   0.624   2.331   2.336
   65MEL    N00  961   0.157   1.233   2.620
   65MEL    C01  962   0.059   1.236   2.711
   65MEL    N02  963  -0.005   1.354   2.726
   65MEL    C03  964  -0.105   1.352   2.817
   65MEL    N04  965  -0.174   1.465   2.831
   65MEL    N05  966  -0.142   1.246   2.891
   65MEL    C06  967  -0.069   1.134   2.868
   65MEL    N07  968  -0.102   1.025   2.939
   65MEL    N08  969   0.035   1.123   2.783
   65MEL    H09  970   0.187   1.320   2.576
   65MEL    H0A  971   0.207   1.145   2.604
   65MEL    H0B  972  -0.159   1.541   2.764
   65MEL    H0C  973  -0.260   1.462   2.885
   65MEL    H0D  974  -0.046   0.941   2.929
   65MEL    H0E  975  -0.184   1.026   3.001
   66MEL    N00  976   0.784   0.259   0.039
   66MEL    C01  977   0.882   0.256  -0.052
   66MEL    N02  978   0.946   0.138  -0.067
   66MEL    C03  979   1.045   0.140  -0.158
   66MEL    N04  980   1.115   0.027  -0.172
   66MEL    N05  981   1.083   0.246  -0.232
   66MEL    C06  982   1.010   0.358  -0.209
   66MEL    N07  983   1.043   0.467  -0.280
   66MEL    N08  984   0.906   0.369  -0.124
   66MEL    H09  985   0.754   0.172   0.083
   66MEL    H0A  986   0.734   0.347   0.055
   66MEL    H0B  987   1.100  -0.049  -0.105
   66MEL    H0C  988   1.201   0.030  -0.226
   66MEL    H0D  989   0.987   0.551  -0.270
   66MEL    H0E  990   1.125   0.466  -0.342
   67MEL    N00  991   1.306   1.606   0.039
   67MEL    C01  992   1.404   1.609  -0.052
   67MEL    N02  993   1.467   1.727  -0.067
   67MEL    C03  994   1.567   1.725  -0.158
   67MEL    N04  995   1.637   1.837  -0.172
   67MEL    N05  996   1.604   1.618  -0.232
   67MEL    C06  997   1.532   1.507  -0.209
   67MEL    N07  998   1.564   1.398  -0.280
   67MEL    N08  999   1.428   1.496  -0.124
   67MEL    H09 1000   1.275   1.692   0.083
   67MEL    H0A 1001   1.256   1.518   0.055
   67MEL    H0B 1002   1.622   1.913  -0.104
   67MEL    H0C 1003   1.722   1.835  -0.226
   67MEL    H0D 1004   1.508   1.314  -0.270
   67MEL    H0E 1005   1.646   1.398  -0.342
   68MEL    N00 1006   0.679   0.632   2.620
   68MEL    C01 1007   0.581   0.629   2.711
   68MEL    N02 1008   0.517   0.511   2.726
   68MEL    C03 1009   0.417   0.513   2.817
   68MEL    N04 1010   0.348   0.400   2.831
   68MEL    N05 1011   0.380   0.619   2.891
   68MEL    C06 1012   0.452   0.731   2.868
   68MEL    N07 1013   0.420   0.840   2.939
   68MEL    N08 1014   0.557   0.741   2.783
   68MEL    H09 1015   0.709   0.545   2.576
   68MEL    H0A 1016   0.728   0.720   2.604
   68MEL    H0B 1017   0.363   0.324   2.764
   68MEL    H0C 1018   0.262   0.403   2.885
   68MEL    H0D 1019   0.476   0.924   2.929
   68MEL    H0E 1020   0.338   0.839   3.001
   69MEL    N00 1021   1.016   1.233   0.626
   69MEL    C01 1022   0.918   1.236   0.717
   69MEL    N02 1023   0.854   1.354   0.732
   69MEL    C03 1024   0.755   1.352   0.823
   69MEL    N04 1025   0.685   1.465   0.837
   69MEL    N05 1026   0.717   1.246   0.897
   69MEL    C06 1027   0.790   1.134   0.874
   69MEL    N07 1028   0.757   1.025   0.945
   69MEL    N08 1029   0.894   1.123   0.789
   69MEL    H09 1030   1.046   1.320   0.582
   69MEL    H0A 1031   1.066   1.145   0.610
   69MEL    H0B 1032   0.700   1.541   0.769
   69MEL    H0C 1033   0.600   1.462   0.891
   69MEL    H0D 1034   0.813   0.941   0.935
   69MEL    H0E 1035   0.675   1.026   1.007
   70MEL    N00 1036   0.498   0.259   0.704
   70MEL    C01 1037   0.596   0.256   0.613
   70MEL    N02 1038   0.660   0.138   0.598
   70MEL    C03 1039   0.759   0.140   0.507
   70MEL    N04 1040   0.829   0.027   0.493
   70MEL    N05 1041   0.797   0.246   0.433
   70MEL    C06 1042   0.724   0.358   0.456
   70MEL    N07 1043   0.757   0.467   0.385
   70MEL    N08 1044   0.620   0.369   0.541
   70MEL    H09 1045   0.468   0.172   0.748
   70MEL    H0A 1046   0.448   0.347   0.720
   70MEL    H0B 1047   0.814  -0.049   0.560
   70MEL    H0C 1048   0.914   0.030   0.439
   70MEL    H0D 1049   0.701   0.551   0.395
   70MEL    H0E 1050   0.839   0.466   0.323
   71MEL    N00 1051   1.020   1.606   0.704
   71MEL    C01 1052   1.117   1.609   0.613
   71MEL    N02 1053   1.181   1.727   0.598
   71MEL    C03 1054   1.281   1.725   0.507
   71MEL    N04 1055   1.350   1.838   0.493
   71MEL    N05 1056   1.318   1.618   0.433
   71MEL    C06 1057   1.246   1.507   0.456
   71MEL    N07 1058   1.278   1.398   0.385
   71MEL    N08 1059   1.142   1.496   0.541
   71MEL    H09 1060   0.989   1.692   0.748
   71MEL    H0A 1061   0.970   1.518   0.720
   71MEL    H0B 1062   1.335   1.913   0.560
   71MEL    H0C 1063   1.436   1.835   0.439
   71MEL    H0D 1064   1.222   1.314   0.395
   71MEL    H0E 1065   1.360   1.398   0.323
   72MEL    N00 1066   1.537   0.632   0.626
   72MEL    C01 1067   1.440   0.629   0.717
   72MEL    N02 1068   1.376   0.511   0.732
   72MEL    C03 1069   1.276   0.513   0.823
   72MEL    N04 1070   1.207   0.400   0.837
   72MEL    N05 1071   1.239   0.619   0.897
   72MEL    C06 1072   1.311   0.731   0.874
   72MEL    N07 1073   1.279   0.840   0.945
   72MEL    N08 1074   1.415   0.741   0.789
   72MEL    H09 1075   1.568   0.545   0.581
   72MEL    H0A 1076   1.587   0.720   0.610
   72MEL    H0B 1077   1.222   0.324   0.770
   72MEL    H0C 1078   1.121   0.403   0.891
   72MEL    H0D 1079   1.335   0.924   0.935
   72MEL    H0E 1080   1.197   0.839   1.007
   73MEL    N00 1081   0.730   1.233   1.291
   73MEL    C01 1082   0.632   1.236   1.382
   73MEL    N02 1083   0.568   1.354   1.397
   73MEL    C03 1084   0.468   1.352   1.487
   73MEL    N04 1085   0.399   1.465   1.502
   73MEL    N05 1086   0.431   1.246   1.562
   73MEL    C06 1087   0.504   1.134   1.539
   73MEL    N07 1088   0.471   1.025   1.609
   73MEL    N08 1089   0.608   1.123   1.454
   73MEL    H09 1090   0.760   1.320   1.247
   73MEL    H0A 1091   0.780   1.145   1.275
   73MEL    H0B 1092   0.414   1.540   1.434
   73MEL    H0C 1093   0.313   1.462   1.556
   73MEL    H0D 1094   0.527   0.941   1.600
   73MEL    H0E 1095   0.389   1.026   1.672
   74MEL    N00 1096   0.212   0.259   1.369
   74MEL    C01 1097   0.310   0.256   1.278
   74MEL    N02 1098   0.373   0.138   1.263
   74MEL    C03 1099   0.473   0.140   1.172
   74MEL    N04 1100   0.543   0.027   1.158
   74MEL    N05 1101   0.511   0.246   1.098
   74MEL    C06 1102   0.438   0.358   1.121
   74MEL    N07 1103   0.471   0.467   1.050
   74MEL    N08 1104   0.334   0.369   1.206
   74MEL    H09 1105   0.181   0.172   1.413
   74MEL    H0A 1106   0.162   0.347   1.385
   74MEL    H0B 1107   0.528  -0.049   1.225
   74MEL    H0C 1108   0.628   0.030   1.104
   74MEL    H0D 1109   0.415   0.551   1.060
   74MEL    H0E 1110   0.552   0.466   0.988
   75MEL    N00 1111   0.734   1.606   1.369
   75MEL    C01 1112   0.831   1.609   1.278
   75MEL    N02 1113   0.895   1.727   1.263
   75MEL    C03 1114   0.995   1.725   1.172
   75MEL    N04 1115   1.064   1.838   1.158
   75MEL    N05 1116   1.032   1.618   1.098
   75MEL    C06 1117   0.960   1.507   1.121
   75MEL    N07 1118   0.992   1.398   1.050
   75MEL    N08 1119   0.856   1.496   1.206
   75MEL    H09 1120   0.703   1.692   1.413
   75MEL    H0A 1121   0.684   1.518   1.385
   75MEL    H0B 1122   1.049   1.913   1.225
   75MEL    H0C 1123   1.150   1.835   1.104
   75MEL    H0D 1124   0.936   1.314   1.060
   75MEL    H0E 1125   1.074   1.398   0.988
   76MEL    N00 1126   1.251   0.632   1.291
   76MEL    C01 1127   1.154   0.629   1.382
   76MEL    N02 1128   1.090   0.511   1.397
   76MEL    C03 1129   0.990   0.513   1.488
   76MEL    N04 1130   0.921   0.400   1.502
   76MEL    N05 1131   0.953   0.619   1.562
   76MEL    C06 1132   1.025   0.731   1.539
   76MEL    N07 1133   0.993   0.840   1.610
   76MEL    N08 1134   1.129   0.741   1.454
   76MEL    H09 1135   1.282   0.545   1.246
   76MEL    H0A 1136   1.301   0.720   1.275
   76MEL    H0B 1137   0.936   0.324   1.434
   76MEL    H0C 1138   0.835   0.403   1.556
   76MEL    H0D 1139   1.049   0.924   1.600
   76MEL    H0E 1140   0.911   0.839   1.672
   77MEL    N00 1141   0.443   1.233   1.955
   77MEL    C01 1142   0.345   1.236   2.046
   77MEL    N02 1143   0.281   1.354   2.061
   77MEL    C03 1144   0.182   1.352   2.152
   77MEL    N04 1145   0.112   1.465   2.166
   77MEL    N05 1146   0.144   1.246   2.226
   77MEL    C06 1147   0.217   1.134   2.203
   77MEL    N07 1148   0.184   1.025   2.274
   77MEL    N08 1149   0.321   1.123   2.118
   77MEL    H09 1150   0.473   1.320   1.911
   77MEL    H0A 1151   0.493   1.145   1.939
   77MEL    H0B 1152   0.127   1.540   2.099
   77MEL    H0C 1153   0.027   1.462   2.220
   77MEL    H0D 1154   0.240   0.941   2.264
   77MEL    H0E 1155   0.102   1.026   2.336
   78MEL    N00 1156   3.055   0.259   2.033
   78MEL    C01 1157   3.153   0.256   1.942
   78MEL    N02 1158   3.217   0.138   1.927
   78MEL    C03 1159   3.316   0.140   1.836
   78MEL    N04 1160   3.386   0.027   1.822
   78MEL    N05 1161   3.354   0.246   1.762
   78MEL    C06 1162   3.281   0.358   1.785
   78MEL    N07 1163   3.314   0.467   1.715
   78MEL    N08 1164   3.177   0.369   1.870
   78MEL    H09 1165   3.025   0.172   2.077
   78MEL    H0A 1166   3.005   0.347   2.049
   78MEL    H0B 1167   3.371  -0.049   1.890
   78MEL    H0C 1168   3.472   0.030   1.768
   78MEL    H0D 1169   3.258   0.551   1.724
   78MEL    H0E 1170   3.396   0.466   1.652
   79MEL    N00 1171   0.447   1.606   2.033
   79MEL    C01 1172   0.545   1.609   1.942
   79MEL    N02 1173   0.608   1.727   1.928
   79MEL    C03 1174   0.708   1.725   1.837
   79MEL    N04 1175   0.778   1.837   1.822
   79MEL    N05 1176   0.746   1.618   1.762
   79MEL    C06 1177   0.673   1.507   1.785
   79MEL    N07 1178   0.705   1.398   1.715
   79MEL    N08 1179   0.569   1.496   1.870
   79MEL    H09 1180   0.416   1.693   2.078
   79MEL    H0A 1181   0.397   1.518   2.049
   79MEL    H0B 1182   0.763   1.913   1.890
   79MEL    H0C 1183   0.863   1.835   1.768
   79MEL    H0D 1184   0.649   1.314   1.724
   79MEL    H0E 1185   0.787   1.398   1.652
   80MEL    N00 1186   0.965   0.632   1.955
   80MEL    C01 1187   0.867   0.629   2.046
   80MEL    N02 1188   0.803   0.511   2.061
   80MEL    C03 1189   0.703   0.513   2.152
   80MEL    N04 1190   0.634   0.400   2.166
   80MEL    N05 1191   0.666   0.619   2.226
   80MEL    C06 1192   0.738   0.731   2.203
   80MEL    N07 1193   0.706   0.840   2.274
   80MEL    N08 1194   0.843   0.741   2.118
   80MEL    H09 1195   0.995   0.545   1.911
   80MEL    H0A 1196   1.015   0.720   1.939
   80MEL    H0B 1197   0.649   0.324   2.099
   80MEL    H0C 1198   0.548   0.403   2.220
   80MEL    H0D 1199   0.762   0.924   2.264
   80MEL    H0E 1200   0.624   0.839   2.336
   81MEL    N00 1201   0.157   1.979   2.620
   81MEL    C01 1202   0.059   1.982   2.711
   81MEL    N02 1203  -0.005   2.100   2.726
   81MEL    C03 1204  -0.105   2.098   2.817
   81MEL    N04 1205  -0.174   2.211   2.831
   81MEL    N05 1206  -0.142   1.992   2.891
   81MEL    C06 1207  -0.069   1.880   2.868
   81MEL    N07 1208  -0.102   1.771   2.939
   81MEL    N08 1209   0.035   1.869   2.783
   81MEL    H09 1210   0.187   2.066   2.576
   81MEL    H0A 1211   0.207   1.891   2.604
   81MEL    H0B 1212  -0.159   2.286   2.764
   81MEL    H0C 1213  -0.260   2.208   2.885
   81MEL    H0D 1214  -0.046   1.687   2.929
   81MEL    H0E 1215  -0.184   1.771   3.001
   82MEL    N00 1216   0.784   1.005   0.039
   82MEL    C01 1217   0.882   1.002  -0.052
   82MEL    N02 1218   0.946   0.884  -0.067
   82MEL    C03 1219   1.045   0.886  -0.158
   82MEL    N04 1220   1.115   0.773  -0.172
   82MEL    N05 1221   1.083   0.992  -0.232
   82MEL    C06 1222   1.010   1.104  -0.209
   82MEL    N07 1223   1.043   1.213  -0.280
   82MEL    N08 1224   0.906   1.115  -0.124
   82MEL    H09 1225   0.754   0.918   0.084
   82MEL    H0A 1226   0.734   1.093   0.055
   82MEL    H0B 1227   1.100   0.697  -0.105
   82MEL    H0C 1228   1.200   0.776  -0.226
   82MEL    H0D 1229   0.987   1.297  -0.270
   82MEL    H0E 1230   1.125   1.212  -0.342
   83MEL    N00 1231   1.306   0.114   0.039
   83MEL    C01 1232   1.404   0.117  -0.052
   83MEL    N02 1233   1.467   0.235  -0.067
   83MEL    C03 1234   1.567   0.233  -0.158
   83MEL    N04 1235   1.637   0.346  -0.172
   83MEL    N05 1236   1.604   0.127  -0.232
   83MEL    C06 1237   1.532   0.015  -0.209
   83MEL    N07 1238   1.564  -0.094  -0.280
   83MEL    N08 1239   1.428   0.005  -0.124
   83MEL    H09 1240   1.275   0.201   0.083
   83MEL    H0A 1241   1.256   0.026   0.055
   83MEL    H0B 1242   1.622   0.422  -0.104
   83MEL    H0C 1243   1.722   0.343  -0.226
   83MEL    H0D 1244   1.508  -0.178  -0.270
   83MEL    H0E 1245   1.646  -0.093  -0.342
   84MEL    N00 1246   0.679   1.378   2.620
   84MEL    C01 1247   0.581   1.375   2.711
   84MEL    N02 1248   0.517   1.257   2.726
   84MEL    C03 1249   0.417   1.259   2.817
   84MEL    N04 1250   0.348   1.146   2.831
   84MEL    N05 1251   0.380   1.365   2.891
   84MEL    C06 1252   0.452   1.477   2.868
   84MEL    N07 1253   0.420   1.586   2.939
   84MEL    N08 1254   0.557   1.487   2.783
   84MEL    H09 1255   0.709   1.291   2.576
   84MEL    H0A 1256   0.729   1.466   2.604
   84MEL    H0B 1257   0.363   1.070   2.764
   84MEL    H0C 1258   0.262   1.149   2.885
   84MEL    H0D 1259   0.476   1.669   2.929
   84MEL    H0E 1260   0.338   1.585   3.001
   85MEL    N00 1261   1.016   1.979   0.626
   85MEL    C01 1262   0.918   1.982   0.717
   85MEL    N02 1263   0.854   2.100   0.732
   85MEL    C03 1264   0.755   2.098   0.823
   85MEL    N04 1265   0.685   2.211   0.837
   85MEL    N05 1266   0.717   1.992   0.897
   85MEL    C06 1267   0.790   1.880   0.874
   85MEL    N07 1268   0.757   1.771   0.945
   85MEL    N08 1269   0.894   1.869   0.789
   85MEL    H09 1270   1.046   2.066   0.582
   85MEL    H0A 1271   1.066   1.891   0.610
   85MEL    H0B 1272   0.700   2.286   0.769
   85MEL    H0C 1273   0.599   2.208   0.891
   85MEL    H0D 1274   0.813   1.687   0.935
   85MEL    H0E 1275   0.675   1.771   1.007
   86MEL    N00 1276   0.498   1.005   0.704
   86MEL    C01 1277   0.596   1.002   0.613
   86MEL    N02 1278   0.660   0.884   0.598
   86MEL    C03 1279   0.759   0.886   0.507
   86MEL    N04 1280   0.829   0.773   0.493
   86MEL    N05 1281   0.797   0.992   0.433
   86MEL    C06 1282   0.724   1.104   0.456
   86MEL    N07 1283   0.757   1.213   0.385
   86MEL    N08 1284   0.620   1.115   0.541
   86MEL    H09 1285   0.468   0.918   0.749
   86MEL    H0A 1286   0.448   1.093   0.720
   86MEL    H0B 1287   0.814   0.697   0.560
   86MEL    H0C 1288   0.914   0.776   0.439
   86MEL    H0D 1289   0.701   1.297   0.395
   86MEL    H0E 1290   0.839   1.212   0.323
   87MEL    N00 1291   1.020   0.114   0.704
   87MEL    C01 1292   1.117   0.117   0.613
   87MEL    N02 1293   1.181   0.235   0.598
   87MEL    C03 1294   1.281   0.233   0.507
   87MEL    N04 1295   1.350   0.346   0.493
   87MEL    N05 1296   1.318   0.127   0.433
   87MEL    C06 1297   1.246   0.015   0.456
   87MEL    N07 1298   1.278  -0.094   0.385
   87MEL    N08 1299   1.142   0.005   0.541
   87MEL    H09 1300   0.989   0.201   0.748
   87MEL    H0A 1301   0.970   0.026   0.720
   87MEL    H0B 1302   1.335   0.422   0.560
   87MEL    H0C 1303   1.436   0.343   0.439
   87MEL    H0D 1304   1.222  -0.178   0.395
   87MEL    H0E 1305   1.360  -0.093   0.323
   88MEL    N00 1306   1.537   1.378   0.626
   88MEL    C01 1307   1.440   1.375   0.717
   88MEL    N02 1308   1.376   1.256   0.732
   88MEL    C03 1309   1.276   1.259   0.823
   88MEL    N04 1310   1.207   1.146   0.837
   88MEL    N05 1311   1.239   1.365   0.897
   88MEL    C06 1312   1.311   1.477   0.874
   88MEL    N07 1313   1.279   1.586   0.945
   88MEL    N08 1314   1.415   1.487   0.789
   88MEL    H09 1315   1.568   1.291   0.581
   88MEL    H0A 1316   1.587   1.466   0.610
   88MEL    H0B 1317   1.222   1.070   0.770
   88MEL    H0C 1318   1.121   1.148   0.891
   88MEL    H0D 1319   1.335   1.669   0.935
   88MEL    H0E 1320   1.197   1.585   1.007
   89MEL    N00 1321   0.730   1.979   1.291
   89MEL    C01 1322   0.632   1.982   1.382
   89MEL    N02 1323   0.568   2.100   1.397
   89MEL    C03 1324   0.468   2.098   1.487
   89MEL    N04 1325   0.399   2.211   1.502
   89MEL    N05 1326   0.431   1.991   1.562
   89MEL    C06 1327   0.504   1.880   1.539
   89MEL    N07 1328   0.471   1.771   1.609
   89MEL    N08 1329   0.608   1.869   1.454
   89MEL    H09 1330   0.760   2.066   1.247
   89MEL    H0A 1331   0.780   1.891   1.275
   89MEL    H0B 1332   0.414   2.286   1.434
   89MEL    H0C 1333   0.313   2.208   1.556
   89MEL    H0D 1334   0.527   1.687   1.599
   89MEL    H0E 1335   0.389   1.771   1.672
   90MEL    N00 1336   0.212   1.005   1.369
   90MEL    C01 1337   0.310   1.002   1.278
   90MEL    N02 1338   0.373   0.884   1.263
   90MEL    C03 1339   0.473   0.886   1.172
   90MEL    N04 1340   0.543   0.773   1.158
   90MEL    N05 1341   0.511   0.992   1.098
   90MEL    C06 1342   0.438   1.104   1.121
   90MEL    N07 1343   0.471   1.213   1.050
   90MEL    N08 1344   0.334   1.115   1.206
   90MEL    H09 1345   0.181   0.918   1.413
   90MEL    H0A 1346   0.162   1.093   1.385
   90MEL    H0B 1347   0.528   0.697   1.225
   90MEL    H0C 1348   0.628   0.776   1.104
   90MEL    H0D 1349   0.415   1.297   1.060
   90MEL    H0E 1350   0.552   1.212   0.988
   91MEL    N00 1351   0.734   0.114   1.369
   91MEL    C01 1352   0.831   0.117   1.278
   91MEL    N02 1353   0.895   0.235   1.263
   91MEL    C03 1354   0.995   0.233   1.172
   91MEL    N04 1355   1.064   0.346   1.158
   91MEL    N05 1356   1.032   0.127   1.098
   91MEL    C06 1357   0.960   0.015   1.121
   91MEL    N07 1358   0.992  -0.094   1.050
   91MEL    N08 1359   0.856   0.005   1.206
   91MEL    H09 1360   0.703   0.201   1.413
   91MEL    H0A 1361   0.684   0.026   1.385
   91MEL    H0B 1362   1.049   0.422   1.225
   91MEL    H0C 1363   1.150   0.343   1.104
   91MEL    H0D 1364   0.936  -0.178   1.060
   91MEL    H0E 1365   1.074  -0.093   0.988
   92MEL    N00 1366   1.251   1.378   1.291
   92MEL    C01 1367   1.154   1.375   1.382
   92MEL    N02 1368   1.090   1.256   1.397
   92MEL    C03 1369   0.990   1.259   1.488
   92MEL    N04 1370   0.921   1.146   1.502
   92MEL    N05 1371   0.953   1.365   1.562
   92MEL    C06 1372   1.025   1.477   1.539
   92MEL    N07 1373   0.993   1.586   1.609
   92MEL    N08 1374   1.129   1.487   1.454
   92MEL    H09 1375   1.282   1.291   1.246
   92MEL    H0A 1376   1.301   1.466   1.275
   92MEL    H0B 1377   0.936   1.070   1.434
   92MEL    H0C 1378   0.835   1.148   1.556
   92MEL    H0D 1379   1.049   1.669   1.600
   92MEL    H0E 1380   0.911   1.585   1.672
   93MEL    N00 1381   0.443   1.979   1.955
   93MEL    C01 1382   0.345   1.982   2.046
   93MEL    N02 1383   0.281   2.100   2.061
   93MEL    C03 1384   0.182   2.098   2.152
   93MEL    N04 1385   0.112   2.211   2.166
   93MEL    N05 1386   0.144   1.992   2.226
   93MEL    C06 1387   0.217   1.880   2.203
   93MEL    N07 1388   0.184   1.771   2.274
   93MEL    N08 1389   0.321   1.869   2.118
   93MEL    H09 1390   0.473   2.066   1.911
   93MEL    H0A 1391   0.493   1.891   1.939
   93MEL    H0B 1392   0.127   2.286   2.099
   93MEL    H0C 1393   0.026   2.208   2.220
   93MEL    H0D 1394   0.240   1.687   2.264
   93MEL    H0E 1395   0.102   1.771   2.336
   94MEL    N00 1396   3.055   1.005   2.033
   94MEL    C01 1397   3.153   1.002   1.942
   94MEL    N02 1398   3.217   0.884   1.927
   94MEL    C03 1399   3.316   0.886   1.836
   94MEL    N04 1400   3.386   0.773   1.822
   94MEL    N05 1401   3.354   0.992   1.762
   94MEL    C06 1402   3.281   1.104   1.785
   94MEL    N07 1403   3.314   1.213   1.715
   94MEL    N08 1404   3.177   1.114   1.870
   94MEL    H09 1405   3.025   0.918   2.078
   94MEL    H0A 1406   3.005   1.093   2.049
   94MEL    H0B 1407   3.371   0.697   1.890
   94MEL    H0C 1408   3.471   0.776   1.768
   94MEL    H0D 1409   3.258   1.297   1.724
   94MEL    H0E 1410   3.396   1.212   1.652
   95MEL    N00 1411   0.447   0.114   2.033
   95MEL    C01 1412   0.545   0.117   1.942
   95MEL    N02 1413   0.608   0.235   1.928
   95MEL    C03 1414   0.708   0.233   1.837
   95MEL    N04 1415   0.778   0.346   1.822
   95MEL    N05 1416   0.746   0.127   1.762
   95MEL    C06 1417   0.673   0.015   1.785
   95MEL    N07 1418   0.705  -0.094   1.715
   95MEL    N08 1419   0.569   0.005   1.871
   95MEL    H09 1420   0.416   0.201   2.077
   95MEL    H0A 1421   0.397   0.026   2.049
   95MEL    H0B 1422   0.763   0.422   1.890
   95MEL    H0C 1423   0.863   0.343   1.768
   95MEL    H0D 1424   0.649  -0.177   1.724
   95MEL    H0E 1425   0.787  -0.093   1.652
   96MEL    N00 1426   0.965   1.378   1.955
   96MEL    C01 1427   0.867   1.375   2.046
   96MEL    N02 1428   0.803   1.257   2.061
   96MEL    C03 1429   0.703   1.259   2.152
   96MEL    N04 1430   0.634   1.146   2.166
   96MEL    N05 1431   0.666   1.365   2.226
   96MEL    C06 1432   0.738   1.477   2.203
   96MEL    N07 1433   0.706   1.586   2.274
   96MEL    N08 1434   0.843   1.487   2.118
   96MEL    H09 1435   0.995   1.291   1.911
   96MEL    H0A 1436   1.015   1.466   1.939
   96MEL    H0B 1437   0.649   1.070   2.099
   96MEL    H0C 1438   0.548   1.149   2.220
   96MEL    H0D 1439   0.762   1.669   2.264
   96MEL    H0E 1440   0.624   1.585   2.336
   97MEL    N00 1441   1.201   0.487   2.620
   97MEL    C01 1442   1.103   0.490   2.711
   97MEL    N02 1443   1.039   0.608   2.726
   97MEL    C03 1444   0.939   0.606   2.817
   97MEL    N04 1445   0.870   0.719   2.831
   97MEL    N05 1446   0.902   0.500   2.891
   97MEL    C06 1447   0.974   0.388   2.868
   97MEL    N07 1448   0.942   0.279   2.939
   97MEL    N08 1449   1.079   0.377   2.783
   97MEL    H09 1450   1.231   0.574   2.576
   97MEL    H0A 1451   1.251   0.399   2.604
   97MEL    H0B 1452   0.885   0.795   2.763
   97MEL    H0C 1453   0.784   0.716   2.885
   97MEL    H0D 1454   0.998   0.195   2.929
   97MEL    H0E 1455   0.860   0.280   3.001
   98MEL    N00 1456   1.828   1.751   0.039
   98MEL    C01 1457   1.926   1.748  -0.052
   98MEL    N02 1458   1.989   1.629  -0.067
   98MEL    C03 1459   2.089   1.632  -0.158
   98MEL    N04 1460   2.159   1.519  -0.172
   98MEL    N05 1461   2.127   1.738  -0.232
   98MEL    C06 1462   2.054   1.850  -0.209
   98MEL    N07 1463   2.087   1.959  -0.280
   98MEL    N08 1464   1.950   1.860  -0.124
   98MEL    H09 1465   1.797   1.664   0.083
   98MEL    H0A 1466   1.778   1.839   0.055
   98MEL    H0B 1467   2.144   1.443  -0.105
   98MEL    H0C 1468   2.244   1.521  -0.226
   98MEL    H0D 1469   2.031   2.042  -0.270
   98MEL    H0E 1470   2.168   1.958  -0.342
   99MEL    N00 1471   2.350   0.860   0.039
   99MEL    C01 1472   2.447   0.863  -0.052
   99MEL    N02 1473   2.511   0.981  -0.067
   99MEL    C03 1474   2.611   0.979  -0.158
   99MEL    N04 1475   2.680   1.092  -0.172
   99MEL    N05 1476   2.648   0.872  -0.232
   99MEL    C06 1477   2.576   0.761  -0.209
   99MEL    N07 1478   2.608   0.652  -0.280
   99MEL    N08 1479   2.472   0.750  -0.124
   99MEL    H09 1480   2.319   0.947   0.084
   99MEL    H0A 1481   2.300   0.772   0.055
   99MEL    H0B 1482   2.665   1.167  -0.105
   99MEL    H0C 1483   2.766   1.089  -0.226
   99MEL    H0D 1484   2.552   0.568  -0.270
   99MEL    H0E 1485   2.690   0.652  -0.342
  100MEL    N00 1486   1.722   2.124   2.620
  100MEL    C01 1487   1.624   2.120   2.711
  100MEL    N02 1488   1.561   2.002   2.726
  100MEL    C03 1489   1.461   2.004   2.817
  100MEL    N04 1490   1.391   1.891   2.831
  100MEL    N05 1491   1.423   2.111   2.892
  100MEL    C06 1492   1.496   2.222   2.868
  100MEL    N07 1493   1.464   2.331   2.939
  100MEL    N08 1494   1.600   2.233   2.783
  100MEL    H09 1495   1.753   2.037   2.576
  100MEL    H0A 1496   1.772   2.211   2.604
  100MEL    H0B 1497   1.406   1.816   2.764
  100MEL    H0C 1498   1.306   1.894   2.885
  100MEL    H0D 1499   1.520   2.415   2.929
  100MEL    H0E 1500   1.382   2.331   3.001
  101MEL    N00 1501   2.059   0.487   0.626
  101MEL    C01 1502   1.961   0.490   0.717
  101MEL    N02 1503   1.897   0.608   0.732
  101MEL    C03 1504   1.798   0.606   0.823
  101MEL    N04 1505   1.728   0.719   0.837
  101MEL    N05 1506   1.760   0.500   0.897
  101MEL    C06 1507   1.833   0.388   0.874
  101MEL    N07 1508   1.800   0.279   0.945
  101MEL    N08 1509   1.937   0.377   0.789
  101MEL    H09 1510   2.089   0.574   0.582
  101MEL    H0A 1511   2.109   0.399   0.610
  101MEL    H0B 1512   1.743   0.795   0.769
  101MEL    H0C 1513   1.643   0.716   0.891
  101MEL    H0D 1514   1.856   0.195   0.935
  101MEL    H0E 1515   1.718   0.280   1.007
  102MEL    N00 1516   1.541   1.751   0.704
  102MEL    C01 1517   1.639   1.748   0.613
  102MEL    N02 1518   1.703   1.629   0.598
  102MEL    C03 1519   1.802   1.632   0.507
  102MEL    N04 1520   1.872   1.519   0.493
  102MEL    N05 1521   1.840   1.738   0.433
  102MEL    C06 1522   1.767   1.850   0.456
  102MEL    N07 1523   1.800   1.958   0.385
  102MEL    N08 1524   1.663   1.860   0.541
  102MEL    H09 1525   1.511   1.664   0.748
  102MEL    H0A 1526   1.491   1.839   0.720
  102MEL    H0B 1527   1.857   1.443   0.560
  102MEL    H0C 1528   1.958   1.521   0.439
  102MEL    H0D 1529   1.744   2.042   0.395
  102MEL    H0E 1530   1.882   1.958   0.323
  103MEL    N00 1531   2.063   0.860   0.704
  103MEL    C01 1532   2.161   0.863   0.613
  103MEL    N02 1533   2.224   0.981   0.598
  103MEL    C03 1534   2.324   0.979   0.507
  103MEL    N04 1535   2.394   1.092   0.493
  103MEL    N05 1536   2.362   0.872   0.433
  103MEL    C06 1537   2.289   0.761   0.456
  103MEL    N07 1538   2.321   0.652   0.385
  103MEL    N08 1539   2.185   0.750   0.541
  103MEL    H09 1540   2.032   0.947   0.749
  103MEL    H0A 1541   2.013   0.772   0.720
  103MEL    H0B 1542   2.379   1.167   0.561
  103MEL    H0C 1543   2.479   1.089   0.439
  103MEL    H0D 1544   2.265   0.568   0.395
  103MEL    H0E 1545   2.403   0.652   0.323
  104MEL    N00 1546   2.581   2.124   0.626
  104MEL    C01 1547   2.483   2.120   0.717
  104MEL    N02 1548   2.419   2.002   0.732
  104MEL    C03 1549   2.319   2.004   0.823
  104MEL    N04 1550   2.250   1.892   0.837
  104MEL    N05 1551   2.282   2.111   0.897
  104MEL    C06 1552   2.354   2.222   0.874
  104MEL    N07 1553   2.322   2.331   0.945
  104MEL    N08 1554   2.459   2.233   0.789
  104MEL    H09 1555   2.611   2.037   0.582
  104MEL    H0A 1556   2.631   2.211   0.610
  104MEL    H0B 1557   2.265   1.816   0.769
  104MEL    H0C 1558   2.164   1.894   0.891
  104MEL    H0D 1559   2.378   2.415   0.935
  104MEL    H0E 1560   2.240   2.331   1.007
  105MEL    N00 1561   1.773   0.487   1.291
  105MEL    C01 1562   1.675   0.490   1.382
  105MEL    N02 1563   1.611   0.608   1.397
  105MEL    C03 1564   1.512   0.606   1.488
  105MEL    N04 1565   1.442   0.719   1.502
  105MEL    N05 1566   1.474   0.500   1.562
  105MEL    C06 1567   1.547   0.388   1.539
  105MEL    N07 1568   1.514   0.279   1.609
  105MEL    N08 1569   1.651   0.378   1.453
  105MEL    H09 1570   1.803   0.574   1.247
  105MEL    H0A 1571   1.823   0.399   1.275
  105MEL    H0B 1572   1.457   0.795   1.434
  105MEL    H0C 1573   1.356   0.716   1.556
  105MEL    H0D 1574   1.570   0.195   1.599
  105MEL    H0E 1575   1.432   0.280   1.672
  106MEL    N00 1576   1.255   1.751   1.369
  106MEL    C01 1577   1.353   1.748   1.278
  106MEL    N02 1578   1.417   1.629   1.263
  106MEL    C03 1579   1.516   1.632   1.172
  106MEL    N04 1580   1.586   1.519   1.158
  106MEL    N05 1581   1.554   1.738   1.098
  106MEL    C06 1582   1.481   1.850   1.121
  106MEL    N07 1583   1.514   1.959   1.050
  106MEL    N08 1584   1.377   1.860   1.206
  106MEL    H09 1585   1.225   1.664   1.413
  106MEL    H0A 1586   1.205   1.839   1.385
  106MEL    H0B 1587   1.571   1.443   1.225
  106MEL    H0C 1588   1.672   1.521   1.104
  106MEL    H0D 1589   1.458   2.042   1.060
  106MEL    H0E 1590   1.596   1.958   0.988
  107MEL    N00 1591   1.777   0.860   1.369
  107MEL    C01 1592   1.874   0.863   1.278
  107MEL    N02 1593   1.938   0.981   1.263
  107MEL    C03 1594   2.038   0.979   1.172
  107MEL    N04 1595   2.107   1.092   1.158
  107MEL    N05 1596   2.075   0.872   1.098
  107MEL    C06 1597   2.003   0.761   1.121
  107MEL    N07 1598   2.035   0.652   1.050
  107MEL    N08 1599   1.899   0.750   1.206
  107MEL    H09 1600   1.746   0.947   1.414
  107MEL    H0A 1601   1.727   0.772   1.385
  107MEL    H0B 1602   2.092   1.167   1.225
  107MEL    H0C 1603   2.193   1.089   1.104
  107MEL    H0D 1604   1.979   0.568   1.060
  107MEL    H0E 1605   2.117   0.652   0.988
  108MEL    N00 1606   2.295   2.123   1.291
  108MEL    C01 1607   2.197   2.120   1.382
  108MEL    N02 1608   2.133   2.002   1.397
  108MEL    C03 1609   2.033   2.004   1.488
  108MEL    N04 1610   1.964   1.891   1.502
  108MEL    N05 1611   1.996   2.111   1.562
  108MEL    C06 1612   2.068   2.222   1.539
  108MEL    N07 1613   2.036   2.331   1.609
  108MEL    N08 1614   2.173   2.233   1.453
  108MEL    H09 1615   2.325   2.036   1.246
  108MEL    H0A 1616   2.344   2.211   1.275
  108MEL    H0B 1617   1.979   1.816   1.434
  108MEL    H0C 1618   1.878   1.894   1.556
  108MEL    H0D 1619   2.092   2.415   1.599
  108MEL    H0E 1620   1.954   2.331   1.672
  109MEL    N00 1621   1.487   0.487   1.955
  109MEL    C01 1622   1.389   0.490   2.046
  109MEL    N02 1623   1.325   0.608   2.061
  109MEL    C03 1624   1.226   0.606   2.152
  109MEL    N04 1625   1.156   0.719   2.166
  109MEL    N05 1626   1.188   0.500   2.226
  109MEL    C06 1627   1.261   0.388   2.203
  109MEL    N07 1628   1.228   0.279   2.274
  109MEL    N08 1629   1.365   0.377   2.118
  109MEL    H09 1630   1.517   0.574   1.911
  109MEL    H0A 1631   1.537   0.399   1.939
  109MEL    H0B 1632   1.171   0.795   2.098
  109MEL    H0C 1633   1.070   0.716   2.220
  109MEL    H0D 1634   1.284   0.195   2.264
  109MEL    H0E 1635   1.146   0.280   2.336
  110MEL    N00 1636   0.969   1.751   2.033
  110MEL    C01 1637   1.067   1.748   1.942
  110MEL    N02 1638   1.130   1.629   1.927
  110MEL    C03 1639   1.230   1.632   1.836
  110MEL    N04 1640   1.300   1.519   1.822
  110MEL    N05 1641   1.268   1.738   1.762
  110MEL    C06 1642   1.195   1.850   1.785
  110MEL    N07 1643   1.228   1.959   1.715
  110MEL    N08 1644   1.091   1.860   1.871
  110MEL    H09 1645   0.938   1.664   2.077
  110MEL    H0A 1646   0.919   1.839   2.049
  110MEL    H0B 1647   1.285   1.443   1.890
  110MEL    H0C 1648   1.385   1.521   1.768
  110MEL    H0D 1649   1.172   2.042   1.725
  110MEL    H0E 1650   1.310   1.958   1.652
  111MEL    N00 1651   1.491   0.860   2.033
  111MEL    C01 1652   1.588   0.863   1.942
  111MEL    N02 1653   1.652   0.981   1.928
  111MEL    C03 1654   1.752   0.979   1.836
  111MEL    N04 1655   1.821   1.092   1.822
  111MEL    N05 1656   1.789   0.872   1.762
  111MEL    C06 1657   1.717   0.761   1.785
  111MEL    N07 1658   1.749   0.652   1.715
  111MEL    N08 1659   1.613   0.750   1.871
  111MEL    H09 1660   1.460   0.947   2.078
  111MEL    H0A 1661   1.441   0.772   2.049
  111MEL    H0B 1662   1.806   1.167   1.889
  111MEL    H0C 1663   1.907   1.089   1.768
  111MEL    H0D 1664   1.693   0.568   1.725
  111MEL    H0E 1665   1.831   0.652   1.652
  112MEL    N00 1666   2.008   2.123   1.955
  112MEL    C01 1667   1.911   2.120   2.046
  112MEL    N02 1668   1.847   2.002   2.061
  112MEL    C03 1669   1.747   2.004   2.152
  112MEL    N04 1670   1.678   1.891   2.166
  112MEL    N05 1671   1.710   2.111   2.226
  112MEL    C06 1672   1.782   2.222   2.203
  112MEL    N07 1673   1.750   2.331   2.274
  112MEL    N08 1674   1.886   2.233   2.118
  112MEL    H09 1675   2.039   2.037   1.911
  112MEL    H0A 1676   2.058   2.211   1.939
  112MEL    H0B 1677   1.693   1.816   2.099
  112MEL    H0C 1678   1.592   1.894   2.220
  112MEL    H0D 1679   1.806   2.415   2.264
  112MEL    H0E 1680   1.668   2.331   2.336
  113MEL    N00 1681   1.201   1.233   2.620
  113MEL    C01 1682   1.103   1.236   2.711
  113MEL    N02 1683   1.039   1.354   2.726
  113MEL    C03 1684   0.939   1.352   2.817
  113MEL    N04 1685   0.870   1.465   2.831
  113MEL    N05 1686   0.902   1.246   2.891
  113MEL    C06 1687   0.974   1.134   2.868
  113MEL    N07 1688   0.942   1.025   2.939
  113MEL    N08 1689   1.079   1.123   2.783
  113MEL    H09 1690   1.231   1.320   2.576
  113MEL    H0A 1691   1.251   1.145   2.604
  113MEL    H0B 1692   0.885   1.540   2.763
  113MEL    H0C 1693   0.784   1.462   2.885
  113MEL    H0D 1694   0.998   0.941   2.929
  113MEL    H0E 1695   0.860   1.026   3.001
  114MEL    N00 1696   1.828   0.259   0.039
  114MEL    C01 1697   1.926   0.256  -0.052
  114MEL    N02 1698   1.989   0.138  -0.067
  114MEL    C03 1699   2.089   0.140  -0.158
  114MEL    N04 1700   2.159   0.027  -0.172
  114MEL    N05 1701   2.127   0.246  -0.232
  114MEL    C06 1702   2.054   0.358  -0.209
  114MEL    N07 1703   2.087   0.467  -0.280
  114MEL    N08 1704   1.950   0.369  -0.124
  114MEL    H09 1705   1.797   0.172   0.083
  114MEL    H0A 1706   1.778   0.347   0.055
  114MEL    H0B 1707   2.144  -0.049  -0.104
  114MEL    H0C 1708   2.244   0.030  -0.226
  114MEL    H0D 1709   2.031   0.551  -0.270
  114MEL    H0E 1710   2.168   0.466  -0.342
  115MEL    N00 1711   2.350   1.606   0.039
  115MEL    C01 1712   2.447   1.609  -0.052
  115MEL    N02 1713   2.511   1.727  -0.067
  115MEL    C03 1714   2.611   1.725  -0.158
  115MEL    N04 1715   2.680   1.838  -0.172
  115MEL    N05 1716   2.648   1.618  -0.232
  115MEL    C06 1717   2.576   1.507  -0.209
  115MEL    N07 1718   2.608   1.398  -0.280
  115MEL    N08 1719   2.472   1.496  -0.124
  115MEL    H09 1720   2.319   1.692   0.083
  115MEL    H0A 1721   2.300   1.518   0.055
  115MEL    H0B 1722   2.665   1.913  -0.105
  115MEL    H0C 1723   2.766   1.835  -0.226
  115MEL    H0D 1724   2.552   1.314  -0.270
  115MEL    H0E 1725   2.690   1.398  -0.342
  116MEL    N00 1726   1.722   0.632   2.620
  116MEL    C01 1727   1.624   0.629   2.711
  116MEL    N02 1728   1.561   0.511   2.726
  116MEL    C03 1729   1.461   0.513   2.817
  116MEL    N04 1730   1.391   0.400   2.831
  116MEL    N05 1731   1.424   0.619   2.892
  116MEL    C06 1732   1.496   0.731   2.868
  116MEL    N07 1733   1.464   0.840   2.939
  116MEL    N08 1734   1.600   0.741   2.783
  116MEL    H09 1735   1.753   0.545   2.576
  116MEL    H0A 1736   1.772   0.720   2.604
  116MEL    H0B 1737   1.406   0.324   2.764
  116MEL    H0C 1738   1.306   0.402   2.885
  116MEL    H0D 1739   1.519   0.923   2.929
  116MEL    H0E 1740   1.382   0.839   3.001
  117MEL    N00 1741   2.059   1.233   0.626
  117MEL    C01 1742   1.961   1.236   0.717
  117MEL    N02 1743   1.897   1.354   0.732
  117MEL    C03 1744   1.798   1.352   0.823
  117MEL    N04 1745   1.728   1.465   0.837
  117MEL    N05 1746   1.760   1.246   0.897
  117MEL    C06 1747   1.833   1.134   0.874
  117MEL    N07 1748   1.800   1.025   0.945
  117MEL    N08 1749   1.937   1.123   0.789
  117MEL    H09 1750   2.089   1.320   0.582
  117MEL    H0A 1751   2.109   1.145   0.610
  117MEL    H0B 1752   1.743   1.541   0.769
  117MEL    H0C 1753   1.643   1.462   0.891
  117MEL    H0D 1754   1.856   0.941   0.935
  117MEL    H0E 1755   1.719   1.026   1.007
  118MEL    N00 1756   1.541   0.259   0.704
  118MEL    C01 1757   1.639   0.256   0.613
  118MEL    N02 1758   1.703   0.138   0.598
  118MEL    C03 1759   1.802   0.140   0.507
  118MEL    N04 1760   1.872   0.027   0.493
  118MEL    N05 1761   1.840   0.246   0.433
  118MEL    C06 1762   1.767   0.358   0.456
  118MEL    N07 1763   1.800   0.467   0.385
  118MEL    N08 1764   1.663   0.369   0.541
  118MEL    H09 1765   1.511   0.172   0.748
  118MEL    H0A 1766   1.491   0.347   0.720
  118MEL    H0B 1767   1.857  -0.049   0.560
  118MEL    H0C 1768   1.958   0.030   0.439
  118MEL    H0D 1769   1.744   0.551   0.395
  118MEL    H0E 1770   1.882   0.466   0.323
  119MEL    N00 1771   2.063   1.606   0.704
  119MEL    C01 1772   2.161   1.609   0.613
  119MEL    N02 1773   2.224   1.727   0.598
  119MEL    C03 1774   2.324   1.725   0.507
  119MEL    N04 1775   2.394   1.837   0.493
  119MEL    N05 1776   2.362   1.618   0.433
  119MEL    C06 1777   2.289   1.507   0.456
  119MEL    N07 1778   2.321   1.398   0.385
  119MEL    N08 1779   2.185   1.496   0.541
  119MEL    H09 1780   2.032   1.692   0.748
  119MEL    H0A 1781   2.013   1.518   0.720
  119MEL    H0B 1782   2.379   1.913   0.561
  119MEL    H0C 1783   2.479   1.835   0.439
  119MEL    H0D 1784   2.265   1.314   0.395
  119MEL    H0E 1785   2.403   1.398   0.323
  120MEL    N00 1786   2.581   0.632   0.626
  120MEL    C01 1787   2.483   0.629   0.717
  120MEL    N02 1788   2.419   0.511   0.732
  120MEL    C03 1789   2.319   0.513   0.823
  120MEL    N04 1790   2.250   0.400   0.837
  120MEL    N05 1791   2.282   0.619   0.897
  120MEL    C06 1792   2.354   0.731   0.874
  120MEL    N07 1793   2.322   0.840   0.945
  120MEL    N08 1794   2.459   0.741   0.789
  120MEL    H09 1795   2.611   0.545   0.582
  120MEL    H0A 1796   2.631   0.720   0.610
  120MEL    H0B 1797   2.265   0.324   0.769
  120MEL    H0C 1798   2.164   0.403   0.891
  120MEL    H0D 1799   2.378   0.924   0.935
  120MEL    H0E 1800   2.240   0.839   1.007
  121MEL    N00 1801   1.773   1.233   1.291
  121MEL    C01 1802   1.675   1.236   1.382
  121MEL    N02 1803   1.611   1.354   1.397
  121MEL    C03 1804   1.512   1.352   1.488
  121MEL    N04 1805   1.442   1.465   1.502
  121MEL    N05 1806   1.474   1.246   1.562
  121MEL    C06 1807   1.547   1.134   1.539
  121MEL    N07 1808   1.514   1.025   1.609
  121MEL    N08 1809   1.651   1.123   1.453
  121MEL    H09 1810   1.803   1.320   1.247
  121MEL    H0A 1811   1.823   1.145   1.275
  121MEL    H0B 1812   1.457   1.541   1.434
  121MEL    H0C 1813   1.356   1.462   1.556
  121MEL    H0D 1814   1.570   0.941   1.599
  121MEL    H0E 1815   1.432   1.026   1.672
  122MEL    N00 1816   1.255   0.259   1.369
  122MEL    C01 1817   1.353   0.256   1.278
  122MEL    N02 1818   1.417   0.138   1.263
  122MEL    C03 1819   1.516   0.140   1.172
  122MEL    N04 1820   1.586   0.027   1.158
  122MEL    N05 1821   1.554   0.246   1.098
  122MEL    C06 1822   1.481   0.358   1.121
  122MEL    N07 1823   1.514   0.467   1.050
  122MEL    N08 1824   1.377   0.369   1.206
  122MEL    H09 1825   1.225   0.172   1.413
  122MEL    H0A 1826   1.205   0.347   1.385
  122MEL    H0B 1827   1.571  -0.049   1.225
  122MEL    H0C 1828   1.672   0.030   1.104
  122MEL    H0D 1829   1.458   0.551   1.060
  122MEL    H0E 1830   1.596   0.466   0.988
  123MEL    N00 1831   1.777   1.606   1.369
  123MEL    C01 1832   1.874   1.609   1.278
  123MEL    N02 1833   1.938   1.727   1.263
  123MEL    C03 1834   2.038   1.725   1.172
  123MEL    N04 1835   2.107   1.838   1.158
  123MEL    N05 1836   2.075   1.618   1.098
  123MEL    C06 1837   2.003   1.507   1.121
  123MEL    N07 1838   2.035   1.398   1.050
  123MEL    N08 1839   1.899   1.496   1.206
  123MEL    H09 1840   1.746   1.693   1.413
  123MEL    H0A 1841   1.727   1.518   1.385
  123MEL    H0B 1842   2.092   1.913   1.225
  123MEL    H0C 1843   2.193   1.835   1.104
  123MEL    H0D 1844   1.979   1.314   1.060
  123MEL    H0E 1845   2.117   1.398   0.988
  124MEL    N00 1846   2.294   0.632   1.291
  124MEL    C01 1847   2.197   0.629   1.382
  124MEL    N02 1848   2.133   0.511   1.397
  124MEL    C03 1849   2.033   0.513   1.488
  124MEL    N04 1850   1.964   0.400   1.502
  124MEL    N05 1851   1.996   0.619   1.562
  124MEL    C06 1852   2.068   0.731   1.539
  124MEL    N07 1853   2.036   0.840   1.609
  124MEL    N08 1854   2.173   0.741   1.453
  124MEL    H09 1855   2.325   0.545   1.246
  124MEL    H0A 1856   2.344   0.720   1.275
  124MEL    H0B 1857   1.979   0.324   1.434
  124MEL    H0C 1858   1.878   0.403   1.556
  124MEL    H0D 1859   2.092   0.924   1.599
  124MEL    H0E 1860   1.954   0.839   1.672
  125MEL    N00 1861   1.487   1.233   1.955
  125MEL    C01 1862   1.389   1.236   2.046
  125MEL    N02 1863   1.325   1.354   2.061
  125MEL    C03 1864   1.226   1.352   2.152
  125MEL    N04 1865   1.156   1.465   2.166
  125MEL    N05 1866   1.188   1.246   2.226
  125MEL    C06 1867   1.261   1.134   2.203
  125MEL    N07 1868   1.228   1.025   2.274
  125MEL    N08 1869   1.365   1.123   2.118
  125MEL    H09 1870   1.517   1.320   1.911
  125MEL    H0A 1871   1.537   1.145   1.939
  125MEL    H0B 1872   1.171   1.540   2.098
  125MEL    H0C 1873   1.070   1.462   2.220
  125MEL    H0D 1874   1.284   0.941   2.264
  125MEL    H0E 1875   1.146   1.026   2.336
  126MEL    N00 1876   0.969   0.259   2.033
  126MEL    C01 1877   1.067   0.256   1.942
  126MEL    N02 1878   1.130   0.138   1.927
  126MEL    C03 1879   1.230   0.140   1.836
  126MEL    N04 1880   1.300   0.027   1.822
  126MEL    N05 1881   1.268   0.246   1.762
  126MEL    C06 1882   1.195   0.358   1.785
  126MEL    N07 1883   1.228   0.467   1.715
  126MEL    N08 1884   1.091   0.369   1.870
  126MEL    H09 1885   0.938   0.172   2.077
  126MEL    H0A 1886   0.919   0.347   2.049
  126MEL    H0B 1887   1.285  -0.049   1.890
  126MEL    H0C 1888   1.385   0.030   1.768
  126MEL    H0D 1889   1.172   0.551   1.725
  126MEL    H0E 1890   1.310   0.466   1.652
  127MEL    N00 1891   1.491   1.606   2.033
  127MEL    C01 1892   1.588   1.609   1.942
  127MEL    N02 1893   1.652   1.727   1.927
  127MEL    C03 1894   1.752   1.725   1.836
  127MEL    N04 1895   1.821   1.838   1.822
  127MEL    N05 1896   1.789   1.618   1.762
  127MEL    C06 1897   1.717   1.507   1.785
  127MEL    N07 1898   1.749   1.398   1.715
  127MEL    N08 1899   1.612   1.496   1.871
  127MEL    H09 1900   1.460   1.693   2.078
  127MEL    H0A 1901   1.441   1.518   2.049
  127MEL    H0B 1902   1.806   1.913   1.889
  127MEL    H0C 1903   1.907   1.835   1.768
  127MEL    H0D 1904   1.693   1.314   1.725
  127MEL    H0E 1905   1.831   1.398   1.652
  128MEL    N00 1906   2.008   0.632   1.955
  128MEL    C01 1907   1.911   0.629   2.046
  128MEL    N02 1908   1.847   0.511   2.061
  128MEL    C03 1909   1.747   0.513   2.152
  128MEL    N04 1910   1.678   0.400   2.166
  128MEL    N05 1911   1.710   0.619   2.226
  128MEL    C06 1912   1.782   0.731   2.203
  128MEL    N07 1913   1.750   0.840   2.274
  128MEL    N08 1914   1.886   0.741   2.118
  128MEL    H09 1915   2.039   0.545   1.911
  128MEL    H0A 1916   2.058   0.720   1.939
  128MEL    H0B 1917   1.693   0.324   2.099
  128MEL    H0C 1918   1.592   0.403   2.220
  128MEL    H0D 1919   1.806   0.924   2.264
  128MEL    H0E 1920   1.668   0.839   2.336
  129MEL    N00 1921   1.201   1.979   2.620
  129MEL    C01 1922   1.103   1.982   2.711
  129MEL    N02 1923   1.039   2.100   2.726
  129MEL    C03 1924   0.939   2.098   2.817
  129MEL    N04 1925   0.870   2.211   2.831
  129MEL    N05 1926   0.902   1.991   2.891
  129MEL    C06 1927   0.974   1.880   2.868
  129MEL    N07 1928   0.942   1.771   2.939
  129MEL    N08 1929   1.079   1.869   2.783
  129MEL    H09 1930   1.231   2.066   2.576
  129MEL    H0A 1931   1.251   1.891   2.604
  129MEL    H0B 1932   0.885   2.286   2.763
  129MEL    H0C 1933   0.784   2.208   2.885
  129MEL    H0D 1934   0.998   1.687   2.929
  129MEL    H0E 1935   0.860   1.771   3.001
  130MEL    N00 1936   1.828   1.005   0.039
  130MEL    C01 1937   1.926   1.002  -0.052
  130MEL    N02 1938   1.989   0.884  -0.067
  130MEL    C03 1939   2.089   0.886  -0.158
  130MEL    N04 1940   2.159   0.773  -0.172
  130MEL    N05 1941   2.127   0.992  -0.232
  130MEL    C06 1942   2.054   1.104  -0.209
  130MEL    N07 1943   2.087   1.213  -0.280
  130MEL    N08 1944   1.950   1.115  -0.124
  130MEL    H09 1945   1.797   0.918   0.083
  130MEL    H0A 1946   1.778   1.093   0.055
  130MEL    H0B 1947   2.144   0.697  -0.105
  130MEL    H0C 1948   2.244   0.776  -0.226
  130MEL    H0D 1949   2.031   1.297  -0.270
  130MEL    H0E 1950   2.168   1.212  -0.342
  131MEL    N00 1951   2.350   0.114   0.039
  131MEL    C01 1952   2.447   0.117  -0.052
  131MEL    N02 1953   2.511   0.235  -0.067
  131MEL    C03 1954   2.611   0.233  -0.158
  131MEL    N04 1955   2.680   0.346  -0.172
  131MEL    N05 1956   2.648   0.127  -0.232
  131MEL    C06 1957   2.576   0.015  -0.209
  131MEL    N07 1958   2.608  -0.094  -0.280
  131MEL    N08 1959   2.472   0.005  -0.124
  131MEL    H09 1960   2.319   0.201   0.083
  131MEL    H0A 1961   2.300   0.026   0.055
  131MEL    H0B 1962   2.665   0.422  -0.105
  131MEL    H0C 1963   2.766   0.343  -0.226
  131MEL    H0D 1964   2.552  -0.177  -0.270
  131MEL    H0E 1965   2.690  -0.093  -0.342
  132MEL    N00 1966   1.722   1.378   2.620
  132MEL    C01 1967   1.624   1.375   2.711
  132MEL    N02 1968   1.561   1.257   2.726
  132MEL    C03 1969   1.461   1.259   2.817
  132MEL    N04 1970   1.391   1.146   2.831
  132MEL    N05 1971   1.423   1.365   2.891
  132MEL    C06 1972   1.496   1.477   2.868
  132MEL    N07 1973   1.464   1.586   2.939
  132MEL    N08 1974   1.600   1.487   2.783
  132MEL    H09 1975   1.753   1.291   2.576
  132MEL    H0A 1976   1.772   1.466   2.604
  132MEL    H0B 1977   1.406   1.070   2.764
  132MEL    H0C 1978   1.306   1.148   2.885
  132MEL    H0D 1979   1.519   1.669   2.929
  132MEL    H0E 1980   1.382   1.585   3.001
  133MEL    N00 1981   2.059   1.979   0.626
  133MEL    C01 1982   1.961   1.982   0.717
  133MEL    N02 1983   1.897   2.100   0.732
  133MEL    C03 1984   1.798   2.098   0.823
  133MEL    N04 1985   1.728   2.211   0.837
  133MEL    N05 1986   1.760   1.992   0.897
  133MEL    C06 1987   1.833   1.880   0.874
  133MEL    N07 1988   1.800   1.771   0.945
  133MEL    N08 1989   1.937   1.869   0.789
  133MEL    H09 1990   2.089   2.066   0.582
  133MEL    H0A 1991   2.109   1.891   0.610
  133MEL    H0B 1992   1.743   2.286   0.769
  133MEL    H0C 1993   1.642   2.208   0.891
  133MEL    H0D 1994   1.856   1.687   0.935
  133MEL    H0E 1995   1.719   1.771   1.007
  134MEL    N00 1996   1.541   1.005   0.704
  134MEL    C01 1997   1.639   1.002   0.613
  134MEL    N02 1998   1.703   0.884   0.598
  134MEL    C03 1999   1.802   0.886   0.507
  134MEL    N04 2000   1.872   0.773   0.493
  134MEL    N05 2001   1.840   0.992   0.433
  134MEL    C06 2002   1.767   1.104   0.456
  134MEL    N07 2003   1.800   1.213   0.385
  134MEL    N08 2004   1.663   1.115   0.541
  134MEL    H09 2005   1.511   0.918   0.748
  134MEL    H0A 2006   1.491   1.093   0.720
  134MEL    H0B 2007   1.857   0.697   0.560
  134MEL    H0C 2008   1.958   0.776   0.439
  134MEL    H0D 2009   1.744   1.297   0.395
  134MEL    H0E 2010   1.882   1.212   0.323
  135MEL    N00 2011   2.063   0.114   0.704
  135MEL    C01 2012   2.161   0.117   0.613
  135MEL    N02 2013   2.224   0.235   0.598
  135MEL    C03 2014   2.324   0.233   0.507
  135MEL    N04 2015   2.394   0.346   0.493
  135MEL    N05 2016   2.362   0.127   0.433
  135MEL    C06 2017   2.289   0.015   0.456
  135MEL    N07 2018   2.321  -0.094   0.385
  135MEL    N08 2019   2.185   0.005   0.541
  135MEL    H09 2020   2.032   0.201   0.748
  135MEL    H0A 2021   2.013   0.026   0.720
  135MEL    H0B 2022   2.379   0.422   0.561
  135MEL    H0C 2023   2.479   0.343   0.439
  135MEL    H0D 2024   2.265  -0.177   0.395
  135MEL    H0E 2025   2.403  -0.093   0.323
  136MEL    N00 2026   2.581   1.378   0.626
  136MEL    C01 2027   2.483   1.375   0.717
  136MEL    N02 2028   2.419   1.257   0.732
  136MEL    C03 2029   2.319   1.259   0.823
  136MEL    N04 2030   2.250   1.146   0.837
  136MEL    N05 2031   2.282   1.365   0.897
  136MEL    C06 2032   2.354   1.477   0.874
  136MEL    N07 2033   2.322   1.586   0.945
  136MEL    N08 2034   2.459   1.487   0.789
  136MEL    H09 2035   2.611   1.291   0.582
  136MEL    H0A 2036   2.631   1.466   0.610
  136MEL    H0B 2037   2.265   1.070   0.769
  136MEL    H0C 2038   2.164   1.148   0.891
  136MEL    H0D 2039   2.378   1.669   0.935
  136MEL    H0E 2040   2.240   1.585   1.007
  137MEL    N00 2041   1.773   1.979   1.291
  137MEL    C01 2042   1.675   1.982   1.382
  137MEL    N02 2043   1.611   2.100   1.397
  137MEL    C03 2044   1.512   2.098   1.488
  137MEL    N04 2045   1.442   2.211   1.502
  137MEL    N05 2046   1.474   1.992   1.562
  137MEL    C06 2047   1.547   1.880   1.539
  137MEL    N07 2048   1.514   1.771   1.609
  137MEL    N08 2049   1.651   1.869   1.453
  137MEL    H09 2050   1.803   2.066   1.247
  137MEL    H0A 2051   1.823   1.891   1.275
  137MEL    H0B 2052   1.457   2.286   1.434
  137MEL    H0C 2053   1.356   2.208   1.556
  137MEL    H0D 2054   1.570   1.687   1.599
  137MEL    H0E 2055   1.432   1.771   1.672
  138MEL    N00 2056   1.255   1.005   1.369
  138MEL    C01 2057   1.353   1.002   1.278
  138MEL    N02 2058   1.417   0.884   1.263
  138MEL    C03 2059   1.516   0.886   1.172
  138MEL    N04 2060   1.586   0.773   1.158
  138MEL    N05 2061   1.554   0.992   1.098
  138MEL    C06 2062   1.481   1.104   1.121
  138MEL    N07 2063   1.514   1.213   1.050
  138MEL    N08 2064   1.377   1.115   1.206
  138MEL    H09 2065   1.225   0.918   1.414
  138MEL    H0A 2066   1.205   1.093   1.385
  138MEL    H0B 2067   1.571   0.697   1.225
  138MEL    H0C 2068   1.671   0.776   1.104
  138MEL    H0D 2069   1.458   1.297   1.060
  138MEL    H0E 2070   1.596   1.212   0.988
  139MEL    N00 2071   1.777   0.114   1.369
  139MEL    C01 2072   1.874   0.117   1.278
  139MEL    N02 2073   1.938   0.235   1.263
  139MEL    C03 2074   2.038   0.233   1.172
  139MEL    N04 2075   2.107   0.346   1.158
  139MEL    N05 2076   2.075   0.127   1.098
  139MEL    C06 2077   2.003   0.015   1.121
  139MEL    N07 2078   2.035  -0.094   1.050
  139MEL    N08 2079   1.899   0.005   1.206
  139MEL    H09 2080   1.746   0.201   1.413
  139MEL    H0A 2081   1.727   0.026   1.385
  139MEL    H0B 2082   2.092   0.422   1.225
  139MEL    H0C 2083   2.193   0.343   1.104
  139MEL    H0D 2084   1.979  -0.178   1.060
  139MEL    H0E 2085   2.117  -0.093   0.988
  140MEL    N00 2086   2.294   1.378   1.291
  140MEL    C01 2087   2.197   1.375   1.382
  140MEL    N02 2088   2.133   1.256   1.396
  140MEL    C03 2089   2.033   1.259   1.488
  140MEL    N04 2090   1.964   1.146   1.502
  140MEL    N05 2091   1.996   1.365   1.562
  140MEL    C06 2092   2.068   1.477   1.539
  140MEL    N07 2093   2.036   1.586   1.609
  140MEL    N08 2094   2.173   1.487   1.453
  140MEL    H09 2095   2.325   1.291   1.246
  140MEL    H0A 2096   2.344   1.466   1.275
  140MEL    H0B 2097   1.979   1.070   1.434
  140MEL    H0C 2098   1.878   1.148   1.556
  140MEL    H0D 2099   2.092   1.669   1.599
  140MEL    H0E 2100   1.954   1.585   1.672
  141MEL    N00 2101   1.487   1.979   1.955
  141MEL    C01 2102   1.389   1.982   2.046
  141MEL    N02 2103   1.325   2.100   2.061
  141MEL    C03 2104   1.225   2.098   2.152
  141MEL    N04 2105   1.156   2.211   2.166
  141MEL    N05 2106   1.188   1.991   2.226
  141MEL    C06 2107   1.261   1.880   2.203
  141MEL    N07 2108   1.228   1.771   2.274
  141MEL    N08 2109   1.365   1.869   2.118
  141MEL    H09 2110   1.517   2.066   1.911
  141MEL    H0A 2111   1.537   1.891   1.939
  141MEL    H0B 2112   1.171   2.286   2.098
  141MEL    H0C 2113   1.070   2.208   2.220
  141MEL    H0D 2114   1.284   1.687   2.264
  141MEL    H0E 2115   1.146   1.771   2.336
  142MEL    N00 2116   0.969   1.005   2.033
  142MEL    C01 2117   1.067   1.002   1.942
  142MEL    N02 2118   1.130   0.884   1.928
  142MEL    C03 2119   1.230   0.886   1.836
  142MEL    N04 2120   1.300   0.773   1.822
  142MEL    N05 2121   1.268   0.992   1.762
  142MEL    C06 2122   1.195   1.104   1.785
  142MEL    N07 2123   1.228   1.213   1.715
  142MEL    N08 2124   1.091   1.114   1.871
  142MEL    H09 2125   0.938   0.918   2.078
  142MEL    H0A 2126   0.919   1.093   2.049
  142MEL    H0B 2127   1.285   0.697   1.890
  142MEL    H0C 2128   1.385   0.776   1.768
  142MEL    H0D 2129   1.172   1.297   1.725
  142MEL    H0E 2130   1.310   1.212   1.652
  143MEL    N00 2131   1.491   0.114   2.033
  143MEL    C01 2132   1.588   0.117   1.942
  143MEL    N02 2133   1.652   0.235   1.927
  143MEL    C03 2134   1.752   0.233   1.836
  143MEL    N04 2135   1.821   0.346   1.822
  143MEL    N05 2136   1.789   0.127   1.762
  143MEL    C06 2137   1.717   0.015   1.785
  143MEL    N07 2138   1.749  -0.094   1.715
  143MEL    N08 2139   1.613   0.005   1.871
  143MEL    H09 2140   1.460   0.201   2.077
  143MEL    H0A 2141   1.441   0.026   2.049
  143MEL    H0B 2142   1.806   0.422   1.889
  143MEL    H0C 2143   1.907   0.343   1.768
  143MEL    H0D 2144   1.693  -0.177   1.725
  143MEL    H0E 2145   1.831  -0.093   1.652
  144MEL    N00 2146   2.008   1.378   1.955
  144MEL    C01 2147   1.911   1.375   2.046
  144MEL    N02 2148   1.847   1.257   2.061
  144MEL    C03 2149   1.747   1.259   2.152
  144MEL    N04 2150   1.678   1.146   2.166
  144MEL    N05 2151   1.710   1.365   2.226
  144MEL    C06 2152   1.782   1.477   2.203
  144MEL    N07 2153   1.750   1.586   2.274
  144MEL    N08 2154   1.886   1.487   2.118
  144MEL    H09 2155   2.039   1.291   1.911
  144MEL    H0A 2156   2.058   1.466   1.939
  144MEL    H0B 2157   1.693   1.070   2.099
  144MEL    H0C 2158   1.592   1.148   2.220
  144MEL    H0D 2159   1.806   1.669   2.264
  144MEL    H0E 2160   1.668   1.585   2.336
   3.12990   2.23740   2.65908   0.00000   0.00000   0.00000   0.00000  -1.14520   0.00000
