Melamine crystal (COD 2205105 supercell)
 2160
    1MEL    N00    1   2.157   0.450   2.646 -0.5041  0.4350  0.3736
    1MEL    C01    2   2.062   0.467   2.742  0.7625 -0.1974 -0.3320
    1MEL    N02    3   1.996   0.591   2.745 -0.0646  0.1707  0.3680
    1MEL    C03    4   1.908   0.593   2.848 -0.4339  0.0732  0.4435
    1MEL    N04    5   1.854   0.718   2.851  0.2641 -0.0350  0.4698
    1MEL    N05    6   1.876   0.495   2.932  0.1193  0.9505  0.0953
    1MEL    C06    7   1.940   0.383   2.908  0.1006  0.3032  0.1389
    1MEL    N07    8   1.916   0.268   2.978 -0.2193 -0.1509  0.5480
    1MEL    N08    9   2.036   0.357   2.817 -0.0391 -0.0209 -0.7800
    1MEL    H09   10   2.168   0.521   2.575  0.1801  1.4585 -1.4154
    1MEL    H0A   11   2.207   0.362   2.632 -1.0129 -3.4753  0.5035
    1MEL    H0B   12   1.870   0.785   2.771  0.4696 -0.3793 -2.2004
    1MEL    H0C   13   1.788   0.740   2.929 -2.5793 -0.5035 -0.8136
    1MEL    H0D   14   1.970   0.191   2.954  0.6329  0.7167  0.3355
    1MEL    H0E   15   1.847   0.249   3.052  0.5885 -0.1111  0.6071
    2MEL    N00   16   2.778   1.694   0.038  0.4745 -0.4078  0.1371
    2MEL    C01   17   2.876   1.701  -0.054  0.3082  0.5175 -0.1372
    2MEL    N02   18   2.934   1.581  -0.078  0.2327 -0.2106 -0.0386
    2MEL    C03   19   3.033   1.576  -0.170  1.0139  0.5979  0.8750
    2MEL    N04   20   3.100   1.461  -0.172 -0.2654 -0.1685 -0.4676
    2MEL    N05   21   3.075   1.681  -0.247 -0.5868  0.5545 -0.2881
    2MEL    C06   22   3.002   1.793  -0.219 -0.0911  0.6414 -0.2534
    2MEL    N07   23   3.032   1.900  -0.290 -0.2677 -0.0978 -0.2774
    2MEL    N08   24   2.898   1.807  -0.138  0.2091  0.2712 -0.1652
    2MEL    H09   25   2.747   1.607   0.080 -0.2008 -0.6931 -0.6408
    2MEL    H0A   26   2.724   1.776   0.058  0.7667 -0.7785  1.3148
    2MEL    H0B   27   3.069   1.392  -0.095 -3.0654 -0.6758 -2.2731
    2MEL    H0C   28   3.186   1.447  -0.231 -2.0770  1.4627  2.2314
    2MEL    H0D   29   2.964   1.977  -0.293 -2.2128 -0.6170 -1.6986
    2MEL    H0E   30   3.118   1.895  -0.352  4.2643 -1.5638 -0.7155
    3MEL    N00   31   0.240   0.825   0.044 -0.6039  0.2648  0.2162
    3MEL    C01   32   0.332   0.828  -0.053  0.1714  0.0717  0.4320
    3MEL    N02   33   0.398   0.943  -0.067 -0.3645 -0.4179 -0.1559
    3MEL    C03   34   0.490   0.947  -0.162 -0.8960  0.4769 -0.0136
    3MEL    N04   35   0.550   1.064  -0.182 -0.0414  0.1177 -0.0380
    3MEL    N05   36   0.515   0.852  -0.251  0.0447 -0.0554 -0.9680
    3MEL    C06   37   0.449   0.737  -0.222 -0.2577  0.1827 -0.8344
    3MEL    N07   38   0.485   0.629  -0.288  0.5525 -0.0824 -0.0049
    3MEL    N08   39   0.359   0.716  -0.125  0.0735 -0.8379 -0.1897
    3MEL    H09   40   0.194   0.917   0.071  0.6975  2.7183  1.8960
    3MEL    H0A   41   0.198   0.733   0.076  2.0045  1.5724  2.3964
    3MEL    H0B   42   0.547   1.127  -0.096 -2.7952 -1.1815 -0.5429
    3MEL    H0C   43   0.623   1.080  -0.255  2.3901 -0.7296  0.5304
    3MEL    H0D   44   0.438   0.538  -0.288  0.5789  5.4645  1.9548
    3MEL    H0E   45   0.567   0.640  -0.347 -2.8120 -0.0196  1.3368
    4MEL    N00   46   2.676   2.046   2.634  0.2664  0.4713 -0.1551
    4MEL    C01   47   2.585   2.038   2.730  0.1137  0.0062  0.0963
    4MEL    N02   48   2.523   1.920   2.749 -0.1830 -0.1046 -0.2148
    4MEL    C03   49   2.436   1.915   2.852 -0.4123  0.4403  0.4214
    4MEL    N04   50   2.366   1.806   2.869 -0.1774 -0.4519 -0.2677
    4MEL    N05   51   2.406   2.015   2.935 -0.1886  0.3724  0.2664
    4MEL    C06   52   2.464   2.136   2.899 -1.2167 -0.1162  0.2590
    4MEL    N07   53   2.432   2.249   2.967  0.6186  0.5108 -0.4532
    4MEL    N08   54   2.565   2.149   2.807 -0.1921 -0.1740  0.6248
    4MEL    H09   55   2.715   1.960   2.587 -0.1539  0.1084 -1.7283
    4MEL    H0A   56   2.720   2.139   2.609  2.8454  2.3376  1.5732
    4MEL    H0B   57   2.372   1.735   2.796 -1.3393 -1.2944 -3.1489
    4MEL    H0C   58   2.285   1.795   2.931 -1.1437  2.0525  0.5790
    4MEL    H0D   59   2.496   2.335   2.960  2.4801  2.2074  3.3433
    4MEL    H0E   60   2.349   2.250   3.030  2.1372 -1.0884 -0.4623
    5MEL    N00   61   2.972   0.484   0.620 -0.2770 -0.0993 -0.1980
    5MEL    C01   62   2.888   0.481   0.724  0.0006 -0.5900  0.5532
    5MEL    N02   63   2.827   0.600   0.747 -0.5143  0.1960 -0.1356
    5MEL    C03   64   2.730   0.598   0.843  0.2998  0.4762  0.4270
    5MEL    N04   65   2.666   0.709   0.852 -0.1358 -0.2412 -0.6870
    5MEL    N05   66   2.701   0.487   0.919  0.1306  0.2413  0.0069
    5MEL    C06   67   2.768   0.376   0.888 -0.2894 -0.1248  0.0250
    5MEL    N07   68   2.746   0.263   0.954 -0.5189 -0.1869  0.0872
    5MEL    N08   69   2.867   0.367   0.796 -0.0663  0.2239  0.4014
    5MEL    H09   70   2.990   0.573   0.581 -0.2231 -1.7214 -1.3831
    5MEL    H0A   71   3.017   0.396   0.598  0.6303 -0.6313  1.3926
    5MEL    H0B   72   2.686   0.782   0.785  0.0558 -0.1926  4.0014
    5MEL    H0C   73   2.589   0.717   0.922  2.3466  0.3115 -1.4151
    5MEL    H0D   74   2.798   0.183   0.925  1.7649  0.0273 -0.3566
    5MEL    H0E   75   2.672   0.272   1.028  0.2108  1.6862 -1.1866
    6MEL    N00   76   2.491   1.689   0.715  0.1851  0.6434  0.3646
    6MEL    C01   77   2.582   1.682   0.622  0.3436  0.3377 -0.2957
    6MEL    N02   78   2.651   1.564   0.610  0.4960  0.3933  0.5232
    6MEL    C03   79   2.749   1.560   0.519  0.0683  0.4892 -0.2345
    6MEL    N04   80   2.818   1.451   0.509  0.4204 -0.0123  0.5973
    6MEL    N05   81   2.787   1.667   0.446 -0.5032  0.0023  0.3490
    6MEL    C06   82   2.705   1.777   0.455 -0.0756 -0.3009  0.4988
    6MEL    N07   83   2.738   1.884   0.380  0.3962  0.0753  0.0689
    6MEL    N08   84   2.596   1.784   0.536  0.6411  0.1153 -0.1354
    6MEL    H09   85   2.456   1.605   0.766 -0.7548 -0.8437 -2.3558
    6MEL    H0A   86   2.436   1.773   0.728 -1.0035 -0.7262  1.4441
    6MEL    H0B   87   2.804   1.375   0.578 -1.7385  1.2181  0.8492
    6MEL    H0C   88   2.904   1.454   0.453 -1.0868 -0.8514 -1.9767
    6MEL    H0D   89   2.680   1.970   0.397 -0.7890  0.9864  0.4558
    6MEL    H0E   90   2.828   1.890   0.334  1.1314  2.9717  3.0497
    7MEL    N00   91   2.998   0.820   0.729  0.5282 -0.3800 -0.2542
    7MEL    C01   92   3.088   0.829   0.626  0.0206  0.4153 -0.3281
    7MEL    N02   93   3.146   0.945   0.600  0.0479  0.0041 -0.1733
    7MEL    C03   94   3.242   0.944   0.501 -0.3182  0.1865 -0.2460
    7MEL    N04   95   3.311   1.057   0.485  0.0251  0.0814  0.1343
    7MEL    N05   96   3.272   0.837   0.426 -0.2101 -0.2776 -0.3974
    7MEL    C06   97   3.199   0.724   0.450 -0.4021 -0.4153 -0.0068
    7MEL    N07   98   3.236   0.610   0.391  0.8633  0.5231 -0.4973
    7MEL    N08   99   3.105   0.718   0.544 -0.3577 -0.6533 -0.5900
    7MEL    H09  100   2.968   0.911   0.776  0.9411 -2.0485 -2.2347
    7MEL    H0A  101   2.943   0.738   0.749 -0.8999  2.3291  2.0789
    7MEL    H0B  102   3.304   1.131   0.560  1.2230 -3.3538  2.2220
    7MEL    H0C  103   3.389   1.067   0.419 -0.9443  0.4134  0.0250
    7MEL    H0D  104   3.182   0.530   0.412  1.8770  2.7831  0.3239
    7MEL    H0E  105   3.323   0.600   0.338 -0.0737 -1.4100 -1.7719
    8MEL    N00  106   0.466   2.050   0.643 -0.0215  0.6989 -0.0167
    8MEL    C01  107   0.377   2.047   0.738 -0.1582  0.3520 -0.2237
    8MEL    N02  108   0.323   1.926   0.769  0.1452 -0.6571  0.1937
    8MEL    C03  109   0.225   1.932   0.864 -0.4266  0.4682  0.6994
    8MEL    N04  110   0.164   1.814   0.885  0.0341  0.4634  0.3683
    8MEL    N05  111   0.187   2.039   0.929  0.0356 -0.5068 -0.2039
    8MEL    C06  112   0.257   2.151   0.900 -0.3509 -0.7220  0.0141
    8MEL    N07  113   0.210   2.263   0.953  0.4035 -0.2151 -0.6186
    8MEL    N08  114   0.356   2.165   0.809  0.0774 -0.2095 -0.1999
    8MEL    H09  115   0.496   1.966   0.600 -1.0817  0.2788 -2.1440
    8MEL    H0A  116   0.497   2.143   0.621 -1.3426  0.6627  0.8513
    8MEL    H0B  117   0.166   1.757   0.799  0.0383 -1.1392 -0.2822
    8MEL    H0C  118   0.073   1.814   0.939 -0.2249 -0.5043 -2.5238
    8MEL    H0D  119   0.268   2.349   0.940  1.2762  0.3773  0.0156
    8MEL    H0E  120   0.130   2.258   1.023 -1.4236 -1.3316 -5.3447
    9MEL    N00  121   2.736   0.512   1.329  0.5948  0.3565 -0.0427
    9MEL    C01  122   2.632   0.502   1.406  0.5192  0.3243 -0.3233
    9MEL    N02  123   2.565   0.614   1.437  0.3823  0.0523 -0.1548
    9MEL    C03  124   2.458   0.604   1.516  0.3402  0.2215  0.0655
    9MEL    N04  125   2.388   0.714   1.535  0.4815 -0.6942 -0.0931
    9MEL    N05  126   2.431   0.490   1.587  0.2062  0.6647  0.7303
    9MEL    C06  127   2.505   0.382   1.547  0.2635  0.5737  0.0715
    9MEL    N07  128   2.463   0.268   1.609  0.2540  0.2899  0.0151
    9MEL    N08  129   2.609   0.380   1.458 -0.1290  0.2915 -0.3000
    9MEL    H09  130   2.763   0.605   1.298 -1.1497 -0.6613 -0.8409
    9MEL    H0A  131   2.782   0.419   1.302 -1.7157 -1.1983 -0.3341
    9MEL    H0B  132   2.411   0.800   1.482 -0.2044  0.6009  0.9100
    9MEL    H0C  133   2.295   0.707   1.583 -1.1906 -1.5153  1.8121
    9MEL    H0D  134   2.512   0.183   1.598 -0.9310 -0.7472  1.0098
    9MEL    H0E  135   2.378   0.274   1.669  1.2230  0.2448  0.5671
   10MEL    N00  136   2.214   1.685   1.348  0.2051 -0.1766  0.3398
   10MEL    C01  137   2.309   1.680   1.260 -0.8860  0.0653  0.6856
   10MEL    N02  138   2.376   1.562   1.249  0.0744 -0.0208 -0.3683
   10MEL    C03  139   2.483   1.568   1.164 -0.4423  0.4578  0.2136
   10MEL    N04  140   2.545   1.459   1.134 -0.6061  0.2208 -0.4913
   10MEL    N05  141   2.520   1.672   1.093  0.0252  0.7598  0.2480
   10MEL    C06  142   2.446   1.780   1.118  0.0243 -0.5391 -0.2897
   10MEL    N07  143   2.489   1.889   1.051 -0.4522 -0.3352 -0.2653
   10MEL    N08  144   2.334   1.793   1.192  0.6046  0.1002 -0.2624
   10MEL    H09  145   2.193   1.595   1.405 -0.5188 -1.1077  0.8001
   10MEL    H0A  146   2.163   1.771   1.371 -1.1881  1.3795 -0.7839
   10MEL    H0B  147   2.531   1.392   1.206  0.1970 -0.3812 -1.3900
   10MEL    H0C  148   2.637   1.464   1.101  2.3354  1.3905  1.4991
   10MEL    H0D  149   2.429   1.966   1.075 -0.9513  0.2291 -1.5425
   10MEL    H0E  150   2.565   1.891   0.976 -0.6441  0.5313  1.3084
   11MEL    N00  151   2.707   0.846   1.374  0.3084  0.0859  0.6374
   11MEL    C01  152   2.799   0.848   1.276 -0.3406 -0.3501  0.4222
   11MEL    N02  153   2.865   0.967   1.271  0.2990  0.2038  0.3594
   11MEL    C03  154   2.968   0.964   1.180 -0.3931 -0.4814 -0.9401
   11MEL    N04  155   3.032   1.081   1.172  0.8805  0.6197  0.3052
   11MEL    N05  156   3.006   0.862   1.102  0.0431  0.2605 -0.7163
   11MEL    C06  157   2.929   0.748   1.109 -0.7980  1.4940  0.4055
   11MEL    N07  158   2.955   0.642   1.030  0.3982 -0.4443  0.5351
   11MEL    N08  159   2.826   0.739   1.198 -0.3291  0.6038  0.2310
   11MEL    H09  160   2.682   0.937   1.411  0.5244 -1.0297 -0.5010
   11MEL    H0A  161   2.642   0.766   1.386 -0.5781  1.0506 -1.2422
   11MEL    H0B  162   3.013   1.160   1.235 -0.4716  0.6712 -1.3301
   11MEL    H0C  163   3.116   1.072   1.124 -0.0936  1.6417  2.0388
   11MEL    H0D  164   2.903   0.550   1.028  1.0584 -4.2675 -1.6712
   11MEL    H0E  165   3.020   0.643   0.955 -0.9917 -1.6853  1.9629
   12MEL    N00  166   0.197   2.064   1.304  0.3001 -0.1393 -0.0107
   12MEL    C01  167   0.100   2.058   1.396 -0.0646  0.5847  0.1102
   12MEL    N02  168   0.041   1.941   1.414  0.5548 -0.0025  0.8091
   12MEL    C03  169  -0.055   1.942   1.506  0.0611  0.2278 -0.4346
   12MEL    N04  170  -0.105   1.821   1.527  0.1350 -0.4352 -0.0322
   12MEL    N05  171  -0.091   2.042   1.583 -0.7305  0.3977  0.0535
   12MEL    C06  172  -0.019   2.158   1.563  0.0032 -0.3644  0.8014
   12MEL    N07  173  -0.044   2.261   1.640  0.0207 -0.4715 -1.1540
   12MEL    N08  174   0.081   2.169   1.471  0.3697  0.1958  0.2471
   12MEL    H09  175   0.229   1.974   1.268  0.7633  1.1138  2.2357
   12MEL    H0A  176   0.252   2.153   1.289 -1.9539  0.6025  1.4517
   12MEL    H0B  177  -0.082   1.746   1.463  1.6209 -0.9424 -0.9652
   12MEL    H0C  178  -0.187   1.814   1.587  0.7396 -2.3274  0.0299
   12MEL    H0D  179   0.010   2.346   1.640  0.1372 -0.5124  1.1927
   12MEL    H0E  180  -0.134   2.252   1.687 -1.7709  2.4844 -0.7160
   13MEL    N00  181   2.457   0.469   1.958 -0.4452 -0.5008 -0.4773
   13MEL    C01  182   2.368   0.478   2.060  0.2391 -0.4322  0.3832
   13MEL    N02  183   2.302   0.597   2.070 -0.6230 -0.2405 -0.2299
   13MEL    C03  184   2.210   0.594   2.171  0.2905 -0.1197 -0.1043
   13MEL    N04  185   2.137   0.704   2.187 -0.0720  0.2087 -0.4382
   13MEL    N05  186   2.174   0.490   2.251  0.6508  0.1827 -0.3913
   13MEL    C06  187   2.241   0.374   2.226 -0.3384 -0.6191 -0.2816
   13MEL    N07  188   2.210   0.269   2.299 -0.7368  0.6131 -0.0399
   13MEL    N08  189   2.342   0.366   2.137  0.8694  0.6302  0.1332
   13MEL    H09  190   2.483   0.561   1.917  3.5009  0.3618  3.8033
   13MEL    H0A  191   2.502   0.381   1.942 -2.0809  1.7498 -1.1854
   13MEL    H0B  192   2.129   0.782   2.120  0.7120  0.5345  1.1318
   13MEL    H0C  193   2.067   0.702   2.255  0.8972 -1.6459 -2.5079
   13MEL    H0D  194   2.260   0.180   2.274  0.1377  3.8155  3.2695
   13MEL    H0E  195   2.127   0.264   2.358 -1.5746 -2.8619  1.4461
   14MEL    N00  196   1.948   1.678   2.032 -0.8263  0.3003 -0.3220
   14MEL    C01  197   2.050   1.685   1.949 -0.2068 -0.3654 -1.1038
   14MEL    N02  198   2.118   1.568   1.933 -0.9382  0.5446  0.1065
   14MEL    C03  199   2.211   1.571   1.837 -0.2080 -0.7020 -0.4511
   14MEL    N04  200   2.288   1.465   1.843 -0.1970  0.0896 -0.5481
   14MEL    N05  201   2.243   1.674   1.757  0.6086  0.6343 -0.6231
   14MEL    C06  202   2.169   1.783   1.776  0.3778 -0.7981  0.5740
   14MEL    N07  203   2.191   1.885   1.698  0.1501 -0.1043  0.2898
   14MEL    N08  204   2.069   1.797   1.866  0.4193 -0.0030 -0.4256
   14MEL    H09  205   1.920   1.590   2.073  0.5906  0.0995  0.3302
   14MEL    H0A  206   1.891   1.766   2.039 -3.8457 -2.4035 -2.8334
   14MEL    H0B  207   2.272   1.405   1.924 -1.6716 -1.9020 -0.5978
   14MEL    H0C  208   2.385   1.475   1.800 -0.0679  0.6192  2.9640
   14MEL    H0D  209   2.127   1.963   1.691 -0.6084 -0.4444  1.0660
   14MEL    H0E  210   2.273   1.881   1.633 -0.5744 -3.4138  0.2829
   15MEL    N00  211   2.450   0.862   2.044 -0.9034  0.7909  0.4642
   15MEL    C01  212   2.545   0.857   1.947 -0.2517 -0.2393  0.2375
   15MEL    N02  213   2.616   0.974   1.926  0.2391  0.8371  0.7520
   15MEL    C03  214   2.724   0.966   1.845 -0.8201  0.0625  0.1266
   15MEL    N04  215   2.795   1.074   1.826 -0.0415  0.4060 -0.4657
   15MEL    N05  216   2.757   0.852   1.786 -0.6513 -0.3828 -0.3894
   15MEL    C06  217   2.675   0.747   1.803  0.3018  0.4447 -0.6208
   15MEL    N07  218   2.712   0.634   1.739  0.5162 -0.0778  0.3211
   15MEL    N08  219   2.573   0.737   1.891 -0.6887  0.1263 -1.0295
   15MEL    H09  220   2.411   0.952   2.079 -0.9212 -2.4893 -0.5149
   15MEL    H0A  221   2.407   0.772   2.067 -0.9349 -4.0922 -3.2116
   15MEL    H0B  222   2.779   1.155   1.891 -1.9516 -0.3886  0.9688
   15MEL    H0C  223   2.882   1.069   1.774  1.0079  0.4614  1.2260
   15MEL    H0D  224   2.654   0.551   1.751  1.1395  2.8562 -1.0099
   15MEL    H0E  225   2.785   0.637   1.668  1.1464  2.5189 -0.4621
   16MEL    N00  226   2.929   2.063   1.971 -0.8672 -0.1618 -0.4402
   16MEL    C01  227   2.841   2.065   2.069  0.5996 -0.3205 -0.1550
   16MEL    N02  228   2.780   1.945   2.087 -0.1175  0.1423  0.0476
   16MEL    C03  229   2.689   1.942   2.182  0.1505 -0.6693 -0.2179
   16MEL    N04  230   2.624   1.826   2.202  0.5110 -0.1255 -0.3484
   16MEL    N05  231   2.651   2.051   2.258 -0.0882  0.3116 -0.0693
   16MEL    C06  232   2.707   2.167   2.227 -0.5820  0.3105  0.0672
   16MEL    N07  233   2.672   2.280   2.288 -0.0382  0.2945 -0.4651
   16MEL    N08  234   2.809   2.177   2.140  0.3007  0.3803  0.3025
   16MEL    H09  235   2.955   1.978   1.922 -0.2070  1.2579  0.6554
   16MEL    H0A  236   2.978   2.152   1.953  2.2896 -0.2748  1.3685
   16MEL    H0B  237   2.651   1.754   2.131 -1.6407  2.1004  0.2062
   16MEL    H0C  238   2.537   1.809   2.248 -2.1233 -2.3252 -1.4986
   16MEL    H0D  239   2.711   2.372   2.262 -2.2802 -1.1226  0.5746
   16MEL    H0E  240   2.589   2.297   2.352  0.2399  2.0564 -0.9437
   17MEL    N00  241   2.161   1.186   2.630  0.1361  0.2347 -0.3995
   17MEL    C01  242   2.060   1.178   2.723  0.6577  0.6849  0.2159
   17MEL    N02  243   2.006   1.301   2.748  0.6738 -0.5543  0.9818
   17MEL    C03  244   1.918   1.304   2.849 -0.1766  0.1163 -0.9221
   17MEL    N04  245   1.843   1.419   2.866 -1.1199 -0.2405  0.6543
   17MEL    N05  246   1.875   1.204   2.926  0.4491  0.1240  0.0601
   17MEL    C06  247   1.939   1.084   2.893 -0.5441  0.0344  0.2218
   17MEL    N07  248   1.920   0.985   2.978  0.4020 -0.4573 -0.5160
   17MEL    N08  249   2.040   1.068   2.801  0.3547 -0.4438 -0.5598
   17MEL    H09  250   2.197   1.271   2.589  1.1086 -1.2620 -0.5950
   17MEL    H0A  251   2.211   1.100   2.627  2.2757 -0.2252 -2.3204
   17MEL    H0B  252   1.849   1.491   2.792 -1.8128 -0.4069 -3.2947
   17MEL    H0C  253   1.770   1.433   2.931  2.9905  0.4302  0.1154
   17MEL    H0D  254   1.982   0.906   2.981  1.1495  1.9209 -0.2661
   17MEL    H0E  255   1.845   0.991   3.050 -2.1070 -2.9302 -0.4420
   18MEL    N00  256   2.780   0.263   0.036 -0.4395 -0.1833  0.6504
   18MEL    C01  257   2.879   0.266  -0.055  0.1780  0.0577 -0.2572
   18MEL    N02  258   2.928   0.145  -0.081  0.4772 -0.4201  0.4554
   18MEL    C03  259   3.026   0.144  -0.171  0.0447 -0.1881 -0.1446
   18MEL    N04  260   3.093   0.022  -0.177 -0.1105 -0.3826  0.0798
   18MEL    N05  261   3.070   0.250  -0.244  0.4648 -0.3925 -0.1910
   18MEL    C06  262   3.003   0.360  -0.218 -0.1048  0.5950  0.2286
   18MEL    N07  263   3.039   0.469  -0.290 -0.3756 -0.3895 -0.2303
   18MEL    N08  264   2.900   0.377  -0.134  0.0472  0.6115 -0.4454
   18MEL    H09  265   2.748   0.178   0.072 -2.5118  2.7321 -0.8932
   18MEL    H0A  266   2.732   0.350   0.062 -2.4174 -0.1897 -0.9081
   18MEL    H0B  267   3.066  -0.052  -0.111 -1.2115 -1.9337 -0.0785
   18MEL    H0C  268   3.180   0.010  -0.224  1.1852 -1.9805 -0.2754
   18MEL    H0D  269   2.994   0.563  -0.282 -0.3522  0.7733  0.1821
   18MEL    H0E  270   3.119   0.458  -0.352  2.3509 -0.6182 -3.1321
   19MEL    N00  271   0.250   1.550   0.046  0.4405  0.4653 -0.1249
   19MEL    C01  272   0.348   1.552  -0.044  0.4957 -0.4115  0.2246
   19MEL    N02  273   0.406   1.673  -0.061 -0.0693 -0.5552 -0.4685
   19MEL    C03  274   0.504   1.671  -0.155 -0.1379 -0.8506  0.7512
   19MEL    N04  275   0.572   1.786  -0.178 -0.0025 -0.3276  0.2393
   19MEL    N05  276   0.543   1.567  -0.235 -0.0091  0.1121 -0.2911
   19MEL    C06  277   0.477   1.452  -0.207 -0.1861 -0.3828 -0.0585
   19MEL    N07  278   0.501   1.346  -0.276  0.4983  0.5170  0.3968
   19MEL    N08  279   0.375   1.440  -0.112 -0.3889 -0.2721  0.0476
   19MEL    H09  280   0.202   1.634   0.081  0.1518 -1.3341 -2.0504
   19MEL    H0A  281   0.205   1.470   0.068 -1.7331 -1.0097 -0.9753
   19MEL    H0B  282   0.565   1.866  -0.112 -2.4808 -0.8003 -0.4152
   19MEL    H0C  283   0.653   1.787  -0.244  1.8615 -0.0959 -1.9620
   19MEL    H0D  284   0.439   1.267  -0.276  3.8772  0.9413 -1.4344
   19MEL    H0E  285   0.585   1.341  -0.331 -1.2103 -1.5241  1.9472
   20MEL    N00  286   2.649   0.606   2.646 -0.1326  0.2849 -0.4706
   20MEL    C01  287   2.560   0.604   2.738  0.5635  0.3100  0.4391
   20MEL    N02  288   2.500   0.487   2.755  0.6649  0.0910 -0.3209
   20MEL    C03  289   2.400   0.488   2.843  0.1093  0.0327  0.1825
   20MEL    N04  290   2.337   0.373   2.870 -1.0026 -0.6317  0.1958
   20MEL    N05  291   2.362   0.598   2.920  0.3830 -0.0798 -0.6763
   20MEL    C06  292   2.432   0.709   2.896  0.1446  0.7887  0.2590
   20MEL    N07  293   2.409   0.813   2.974  0.6872  0.5153  0.3368
   20MEL    N08  294   2.542   0.713   2.817  0.2326  0.4307 -0.2683
   20MEL    H09  295   2.693   0.523   2.602  0.3669 -0.6126 -1.8136
   20MEL    H0A  296   2.701   0.688   2.631 -1.1847 -1.0826 -0.4815
   20MEL    H0B  297   2.355   0.302   2.801  0.6388  2.3658 -3.7070
   20MEL    H0C  298   2.259   0.379   2.929 -0.4221 -1.6975 -0.0681
   20MEL    H0D  299   2.472   0.893   2.963 -0.0621 -1.5707 -2.3016
   20MEL    H0E  300   2.325   0.802   3.037  1.8829 -1.9964  1.5510
   21MEL    N00  301   2.985   1.196   0.660  0.3283  0.6733  0.3800
   21MEL    C01  302   2.891   1.197   0.751  0.0318 -0.3265  0.4373
   21MEL    N02  303   2.830   1.318   0.760  0.6213  0.7167  0.0716
   21MEL    C03  304   2.729   1.312   0.850  0.0492  0.1666 -0.1522
   21MEL    N04  305   2.659   1.419   0.858 -0.0652  0.2972  0.1110
   21MEL    N05  306   2.689   1.201   0.924 -0.3039  0.9006 -0.1472
   21MEL    C06  307   2.768   1.095   0.909  0.0726 -0.4732  0.5755
   21MEL    N07  308   2.740   0.981   0.969 -0.4944  0.0170  0.1196
   21MEL    N08  309   2.874   1.093   0.830 -0.7124  0.2792  0.3722
   21MEL    H09  310   3.017   1.279   0.615 -2.3886  0.1242  2.2743
   21MEL    H0A  311   3.031   1.104   0.648  0.4523 -1.3238  2.3152
   21MEL    H0B  312   2.682   1.492   0.788 -0.3489  0.9720  0.5836
   21MEL    H0C  313   2.566   1.423   0.898  0.1472 -2.2101 -0.5998
   21MEL    H0D  314   2.805   0.903   0.963 -1.7022  0.5879 -1.7396
   21MEL    H0E  315   2.652   0.971   1.020 -0.9686 -1.1306  0.4719
   22MEL    N00  316   2.501   0.252   0.711  0.4748  0.0402 -0.3516
   22MEL    C01  317   2.589   0.238   0.602  0.8945  0.0060 -0.1283
   22MEL    N02  318   2.650   0.113   0.593  0.6117 -0.7552 -0.0729
   22MEL    C03  319   2.749   0.119   0.502 -0.2080  0.3683  0.7114
   22MEL    N04  320   2.825   0.010   0.488 -1.0378 -0.8216  0.0257
   22MEL    N05  321   2.786   0.222   0.424 -0.5473  0.4377  0.1880
   22MEL    C06  322   2.715   0.338   0.444  0.5378 -0.0519  0.3494
   22MEL    N07  323   2.744   0.446   0.373  0.9702  0.5335  0.4825
   22MEL    N08  324   2.609   0.345   0.525  0.1458  0.2158  0.1733
   22MEL    H09  325   2.468   0.171   0.769 -2.9877  2.5185  0.8657
   22MEL    H0A  326   2.457   0.342   0.717  1.4910  0.3930  3.2438
   22MEL    H0B  327   2.800  -0.063   0.554 -3.0134  1.6772  0.1498
   22MEL    H0C  328   2.918   0.017   0.441  0.9120  0.7675 -2.3761
   22MEL    H0D  329   2.694   0.540   0.369  0.6052  2.5644  1.1779
   22MEL    H0E  330   2.827   0.443   0.318  0.3423  1.0540  1.2512
   23MEL    N00  331   2.991   1.551   0.716 -0.7735  0.7656  0.0046
   23MEL    C01  332   3.092   1.551   0.636  0.8683 -0.1980 -0.3015
   23MEL    N02  333   3.153   1.670   0.623  0.0059 -0.0352  0.5014
   23MEL    C03  334   3.257   1.668   0.533 -0.5050 -0.4530 -1.0311
   23MEL    N04  335   3.320   1.784   0.509  0.0432 -0.8720  0.0317
   23MEL    N05  336   3.278   1.567   0.447 -0.0861  0.1818  0.0160
   23MEL    C06  337   3.207   1.457   0.462  0.2237 -0.3212  0.2052
   23MEL    N07  338   3.238   1.350   0.392  0.0982 -0.0056 -0.3774
   23MEL    N08  339   3.106   1.442   0.553  0.2912 -0.7476  0.0827
   23MEL    H09  340   2.953   1.647   0.745 -1.7798  1.2161 -1.9606
   23MEL    H0A  341   2.938   1.470   0.738  2.6885  1.2501  2.8817
   23MEL    H0B  342   3.311   1.862   0.576  1.4352  0.3030  1.1216
   23MEL    H0C  343   3.413   1.792   0.459 -0.6814 -2.8012  2.1671
   23MEL    H0D  344   3.190   1.264   0.408 -0.0655 -1.2548  0.0478
   23MEL    H0E  345   3.323   1.343   0.336  0.5705 -0.8784  1.5548
   24MEL    N00  346   0.480   0.615   0.635 -0.1263 -0.4356 -0.2882
   24MEL    C01  347   0.381   0.615   0.725 -0.1187 -0.0351 -0.8951
   24MEL    N02  348   0.325   0.491   0.748  0.6395 -0.8819 -0.3888
   24MEL    C03  349   0.214   0.501   0.822 -0.7818  0.3617 -0.2936
   24MEL    N04  350   0.142   0.391   0.839  0.3353  0.6289  0.2236
   24MEL    N05  351   0.178   0.609   0.892 -0.0429 -0.5755  1.0265
   24MEL    C06  352   0.260   0.716   0.879 -0.1363 -0.3340  0.2056
   24MEL    N07  353   0.230   0.812   0.967  0.1868 -0.1700  0.8793
   24MEL    N08  354   0.353   0.734   0.785  0.6603 -0.4221 -0.2995
   24MEL    H09  355   0.514   0.524   0.610  1.7455 -0.0148  2.3895
   24MEL    H0A  356   0.530   0.703   0.615 -1.0821 -1.7333  1.4597
   24MEL    H0B  357   0.162   0.318   0.771 -1.4608  0.4662 -2.1490
   24MEL    H0C  358   0.064   0.398   0.902 -1.0568 -1.8783 -0.9834
   24MEL    H0D  359   0.280   0.903   0.948  1.1666  0.2744 -2.8411
   24MEL    H0E  360   0.149   0.804   1.028 -1.1573  0.7747 -2.1950
   25MEL    N00  361   2.741   1.204   1.302  0.1562  0.1840 -0.1881
   25MEL    C01  362   2.640   1.210   1.394  0.6513  0.4040  0.3000
   25MEL    N02  363   2.571   1.325   1.405 -0.2523  0.0067 -0.7792
   25MEL    C03  364   2.477   1.331   1.499  0.0708 -0.2396 -0.1556
   25MEL    N04  365   2.403   1.442   1.515  0.4397 -0.4423 -0.4408
   25MEL    N05  366   2.450   1.230   1.584 -0.1361  0.2820  0.0698
   25MEL    C06  367   2.522   1.117   1.566  0.5582 -0.3082  0.5242
   25MEL    N07  368   2.482   1.009   1.639 -0.2228  0.2809 -0.3500
   25MEL    N08  369   2.620   1.104   1.483 -0.5913 -0.5559  0.0326
   25MEL    H09  370   2.772   1.285   1.243  0.7930 -2.0032  0.3401
   25MEL    H0A  371   2.794   1.113   1.293  0.5654 -1.0645  0.1605
   25MEL    H0B  372   2.402   1.510   1.437 -0.5156 -0.2717  0.9702
   25MEL    H0C  373   2.319   1.440   1.577  0.7867  2.8154  0.2886
   25MEL    H0D  374   2.528   0.919   1.633  3.5216  0.7583  0.6552
   25MEL    H0E  375   2.401   1.019   1.696 -1.0624  2.7765  1.3178
   26MEL    N00  376   2.216   0.244   1.379  0.2075  0.3269 -0.1937
   26MEL    C01  377   2.310   0.231   1.287  0.3225 -0.6112  0.6214
   26MEL    N02  378   2.384   0.120   1.273  0.1344  0.0896  0.3080
   26MEL    C03  379   2.475   0.125   1.174  0.7247  0.6246 -0.1917
   26MEL    N04  380   2.538   0.008   1.156 -0.5756  0.1044 -0.3359
   26MEL    N05  381   2.510   0.231   1.097  0.8479 -0.7213 -0.3044
   26MEL    C06  382   2.430   0.336   1.123  0.0953 -0.0606 -0.1522
   26MEL    N07  383   2.445   0.446   1.041 -0.1171 -0.1431  0.6991
   26MEL    N08  384   2.328   0.340   1.211  0.1095  0.9179 -0.3536
   26MEL    H09  385   2.193   0.156   1.435 -1.0602 -0.6074 -1.6973
   26MEL    H0A  386   2.155   0.322   1.373 -0.0471 -3.3462 -1.9650
   26MEL    H0B  387   2.535  -0.061   1.235 -0.5677  0.8522  2.4203
   26MEL    H0C  388   2.626   0.001   1.099  3.8679  3.0340 -0.4178
   26MEL    H0D  389   2.381   0.522   1.055  0.7483 -0.8647 -0.8395
   26MEL    H0E  390   2.524   0.453   0.975  1.6579  0.3898  0.9658
   27MEL    N00  391   2.734   1.559   1.358  0.0848 -0.0222  0.3464
   27MEL    C01  392   2.831   1.568   1.263  0.0860 -0.1274  1.1268
   27MEL    N02  393   2.902   1.680   1.260  0.2666  0.2802  0.2174
   27MEL    C03  394   3.008   1.671   1.173  0.0476 -0.6222 -1.0935
   27MEL    N04  395   3.075   1.784   1.169 -0.1790  0.9036  0.0309
   27MEL    N05  396   3.030   1.573   1.083 -0.4460 -0.4663 -0.5453
   27MEL    C06  397   2.947   1.470   1.099 -0.7822  0.1060 -0.0268
   27MEL    N07  398   2.980   1.362   1.032  0.0225 -0.1061 -0.4883
   27MEL    N08  399   2.842   1.460   1.180 -0.5913  0.0759  0.0553
   27MEL    H09  400   2.714   1.641   1.418 -0.3570 -0.5994  0.2827
   27MEL    H0A  401   2.673   1.476   1.376 -2.9472  0.4606  0.5701
   27MEL    H0B  402   3.068   1.839   1.253  1.8081  0.4944 -2.5645
   27MEL    H0C  403   3.153   1.786   1.113 -0.4979 -2.6701  2.7456
   27MEL    H0D  404   2.925   1.283   1.055  0.0223  1.1716  1.1005
   27MEL    H0E  405   3.064   1.365   0.967  3.2903  1.1062  0.4223
   28MEL    N00  406   0.207   0.607   1.297  0.2584  0.2623  0.5925
   28MEL    C01  407   0.117   0.606   1.393 -0.1732 -0.2301  0.9278
   28MEL    N02  408   0.056   0.487   1.423  0.4139 -0.6257  0.1496
   28MEL    C03  409  -0.042   0.489   1.512 -0.1333 -0.1877  0.0686
   28MEL    N04  410  -0.111   0.373   1.525  0.1389 -0.5400 -0.7454
   28MEL    N05  411  -0.077   0.600   1.579  0.0267 -0.7736 -0.1121
   28MEL    C06  412  -0.014   0.719   1.545  0.0141 -0.2293  0.1571
   28MEL    N07  413  -0.042   0.832   1.617 -0.0210 -0.4262  0.4275
   28MEL    N08  414   0.083   0.724   1.452 -0.1380  0.3513  0.3057
   28MEL    H09  415   0.246   0.522   1.260  0.8182 -1.2507  1.5573
   28MEL    H0A  416   0.258   0.692   1.282 -0.5049 -0.4903  3.4372
   28MEL    H0B  417  -0.081   0.299   1.460 -0.8267  1.7425 -1.2683
   28MEL    H0C  418  -0.196   0.372   1.578 -3.0060 -1.0885 -0.6784
   28MEL    H0D  419   0.021   0.908   1.621  0.9444 -0.8206  0.3318
   28MEL    H0E  420  -0.133   0.827   1.659 -1.4256 -1.8521 -0.8869
   29MEL    N00  421   2.485   1.216   1.988  0.0735  0.4261 -0.2205
   29MEL    C01  422   2.384   1.219   2.076  0.2867 -0.2294  0.5175
   29MEL    N02  423   2.315   1.334   2.084 -0.3745  0.0952 -0.2216
   29MEL    C03  424   2.208   1.319   2.170 -0.4380  0.1259 -0.5334
   29MEL    N04  425   2.129   1.421   2.182 -0.2701 -0.0680  0.3646
   29MEL    N05  426   2.175   1.205   2.239  0.5585 -0.5393 -0.4177
   29MEL    C06  427   2.259   1.099   2.228 -0.0767  0.1439 -0.3146
   29MEL    N07  428   2.219   0.983   2.288  0.0699  0.0497 -0.2244
   29MEL    N08  429   2.367   1.102   2.148 -0.3646  0.0092 -0.8204
   29MEL    H09  430   2.509   1.309   1.953  1.1500  0.8833 -0.3040
   29MEL    H0A  431   2.534   1.127   1.959  0.4041 -4.1304 -0.2981
   29MEL    H0B  432   2.134   1.489   2.107 -0.6358  0.9936  0.3627
   29MEL    H0C  433   2.047   1.400   2.240 -2.1788 -1.2981  0.2456
   29MEL    H0D  434   2.277   0.899   2.275 -0.6748  0.6346 -1.0021
   29MEL    H0E  435   2.128   0.976   2.336 -4.0972  2.5842 -0.9441
   30MEL    N00  436   1.949   0.236   2.047  0.3291  0.5744  0.0469
   30MEL    C01  437   2.047   0.240   1.956  0.0577 -0.3804 -0.0447
   30MEL    N02  438   2.105   0.121   1.938 -0.1285 -0.1312  0.2239
   30MEL    C03  439   2.201   0.127   1.848 -0.1186 -0.3701  0.6744
   30MEL    N04  440   2.252   0.011   1.816  0.6569  0.5410 -0.5303
   30MEL    N05  441   2.237   0.232   1.771 -0.7260  0.0782  0.0935
   30MEL    C06  442   2.165   0.345   1.795  0.1815 -0.6316 -0.1632
   30MEL    N07  443   2.189   0.455   1.718 -1.1648 -0.3594 -0.1669
   30MEL    N08  444   2.070   0.355   1.887 -0.1758 -0.3843  0.5242
   30MEL    H09  445   1.915   0.139   2.079 -2.2926 -0.5273 -1.7722
   30MEL    H0A  446   1.897   0.329   2.066 -0.8636  1.2708 -1.4733
   30MEL    H0B  447   2.218  -0.073   1.860 -2.7546 -0.4312 -0.7397
   30MEL    H0C  448   2.337   0.003   1.764 -0.6965 -0.6363 -0.0237
   30MEL    H0D  449   2.133   0.533   1.724  2.3485  0.4978 -0.9156
   30MEL    H0E  450   2.273   0.453   1.657  1.2396  0.8945  0.7081
   31MEL    N00  451   2.456   1.575   2.046  0.2688  0.6167 -0.2462
   31MEL    C01  452   2.557   1.582   1.963  0.8256  0.1343 -0.5617
   31MEL    N02  453   2.621   1.699   1.947  0.1436  0.4524 -0.4108
   31MEL    C03  454   2.712   1.696   1.851 -0.4085  0.0356  0.1630
   31MEL    N04  455   2.786   1.799   1.844 -0.0651 -0.3451  0.2620
   31MEL    N05  456   2.757   1.595   1.772  1.0530  0.6129 -0.0201
   31MEL    C06  457   2.681   1.490   1.795  0.4330 -0.5056  0.5149
   31MEL    N07  458   2.705   1.381   1.729  0.4722 -0.2613  0.1935
   31MEL    N08  459   2.577   1.475   1.884  0.2038 -0.8805 -0.3766
   31MEL    H09  460   2.425   1.662   2.094 -0.3756  1.0551 -1.8202
   31MEL    H0A  461   2.388   1.496   2.044 -0.8835 -1.1498 -0.9747
   31MEL    H0B  462   2.772   1.874   1.912  1.6489  0.2015  0.8818
   31MEL    H0C  463   2.877   1.786   1.794  0.5317 -3.6235  0.2778
   31MEL    H0D  464   2.639   1.303   1.733  1.3794 -0.5881 -2.5993
   31MEL    H0E  465   2.783   1.363   1.663 -1.8865 -1.5419  1.3729
   32MEL    N00  466   2.950   0.619   1.982 -0.4186 -0.1003 -0.2181
   32MEL    C01  467   2.856   0.607   2.071 -0.9838 -0.0687  0.0485
   32MEL    N02  468   2.789   0.489   2.081 -0.1099 -0.3327 -0.7695
   32MEL    C03  469   2.694   0.488   2.175  0.6809 -0.7217  0.7200
   32MEL    N04  470   2.625   0.378   2.193 -0.0971 -0.6732 -0.4322
   32MEL    N05  471   2.655   0.594   2.249  0.0753 -0.4439  0.7724
   32MEL    C06  472   2.734   0.702   2.228  0.1182 -0.0878 -0.7368
   32MEL    N07  473   2.703   0.809   2.303 -0.1495 -1.0751  0.1862
   32MEL    N08  474   2.832   0.715   2.141  0.6514  0.2978  0.4236
   32MEL    H09  475   2.998   0.541   1.931  1.5824  0.3000  1.0018
   32MEL    H0A  476   2.995   0.706   1.971 -0.9901 -0.0899  1.6227
   32MEL    H0B  477   2.636   0.296   2.132 -0.9719 -0.5043 -2.7660
   32MEL    H0C  478   2.543   0.368   2.249  0.0243  0.6687 -3.7080
   32MEL    H0D  479   2.747   0.897   2.293  2.3179 -1.5308  1.3752
   32MEL    H0E  480   2.621   0.794   2.363 -0.3778 -4.1653  0.1797
   33MEL    N00  481   2.159   1.912   2.653  0.0787 -0.1824  0.2703
   33MEL    C01  482   2.072   1.917   2.746 -0.7703 -0.4479  0.1829
   33MEL    N02  483   2.005   2.032   2.752  0.4423 -0.0971  0.1031
   33MEL    C03  484   1.911   2.029   2.845  0.0810  0.5030 -0.3294
   33MEL    N04  485   1.842   2.145   2.840 -0.0303 -0.4022  0.4371
   33MEL    N05  486   1.878   1.928   2.931 -0.1019 -0.3789 -0.5261
   33MEL    C06  487   1.952   1.813   2.907  0.3841  0.4679 -0.1244
   33MEL    N07  488   1.924   1.703   2.973  0.8925 -0.1190 -0.4000
   33MEL    N08  489   2.054   1.800   2.818 -0.0528 -0.0171  0.6375
   33MEL    H09  490   2.184   1.997   2.595  0.0151 -0.3785  0.4263
   33MEL    H0A  491   2.213   1.826   2.645  2.5414  1.4363 -0.9200
   33MEL    H0B  492   1.870   2.217   2.767  0.9736 -0.7516  2.6832
   33MEL    H0C  493   1.758   2.154   2.888  0.1608  1.9080  0.5317
   33MEL    H0D  494   1.972   1.615   2.963 -1.3642  1.3977  0.4796
   33MEL    H0E  495   1.857   1.713   3.057  2.5379  2.3663 -0.2007
   34MEL    N00  496   2.782   0.982   0.005 -0.6160  0.4447  0.1488
   34MEL    C01  497   2.885   0.970  -0.074 -1.2920  0.7287 -0.2681
   34MEL    N02  498   2.938   0.847  -0.089 -0.3878 -0.6199  0.1299
   34MEL    C03  499   3.038   0.845  -0.177  0.4312  0.4071  0.0336
   34MEL    N04  500   3.104   0.728  -0.188  0.4282 -0.3864  0.3845
   34MEL    N05  501   3.072   0.944  -0.266  0.6731 -0.1416 -0.2698
   34MEL    C06  502   3.005   1.059  -0.242 -0.1536 -0.2524 -0.0206
   34MEL    N07  503   3.043   1.163  -0.306 -0.4936  0.3847  0.5989
   34MEL    N08  504   2.912   1.078  -0.150  0.2992  0.1745  0.2477
   34MEL    H09  505   2.749   0.900   0.058  1.1105  2.6235  0.2385
   34MEL    H0A  506   2.737   1.069   0.015  0.2635  0.4047 -0.3176
   34MEL    H0B  507   3.096   0.668  -0.103 -1.3011 -0.5574  0.4133
   34MEL    H0C  508   3.195   0.730  -0.239  0.1246  2.6120  2.2213
   34MEL    H0D  509   3.002   1.251  -0.279 -1.2808  0.7134  0.7548
   34MEL    H0E  510   3.131   1.173  -0.358  2.1407  2.9735  3.2051
   35MEL    N00  511   0.245   0.088   0.059  0.0740 -0.9400 -0.0661
   35MEL    C01  512   0.334   0.103  -0.045  0.1030  0.3798 -0.4422
   35MEL    N02  513   0.397   0.228  -0.051 -0.7814  0.3990 -0.1263
   35MEL    C03  514   0.490   0.232  -0.146 -0.4853  0.1787 -0.0759
   35MEL    N04  515   0.557   0.348  -0.156  0.1144 -0.2975 -0.3921
   35MEL    N05  516   0.524   0.130  -0.230  0.6290 -0.2332 -0.0497
   35MEL    C06  517   0.449   0.018  -0.219 -0.0656  0.0265  0.6085
   35MEL    N07  518   0.473  -0.083  -0.301 -0.2891 -0.0999  0.6351
   35MEL    N08  519   0.351  -0.001  -0.125  0.7801  0.5419 -0.4775
   35MEL    H09  520   0.214   0.173   0.111 -1.4055  2.0005  2.0514
   35MEL    H0A  521   0.192  -0.001   0.062 -1.0469 -5.1912  1.7091
   35MEL    H0B  522   0.541   0.423  -0.083 -2.9996  1.6625  1.3440
   35MEL    H0C  523   0.621   0.357  -0.234 -1.3845 -0.1757 -5.5983
   35MEL    H0D  524   0.417  -0.161  -0.298 -2.2086 -0.9042  3.1807
   35MEL    H0E  525   0.549  -0.078  -0.370 -1.3950 -1.1549 -0.9199
   36MEL    N00  526   2.664   1.323   2.651  0.1129 -0.0593 -0.8385
   36MEL    C01  527   2.561   1.326   2.733 -0.1197 -0.4299 -0.2806
   36MEL    N02  528   2.484   1.214   2.734  0.2067 -0.7952 -0.4220
   36MEL    C03  529   2.392   1.211   2.833  0.4654  0.3434  0.7243
   36MEL    N04  530   2.321   1.090   2.849 -0.7447 -0.3615 -0.4226
   36MEL    N05  531   2.374   1.298   2.930  0.7304  0.2875  0.3321
   36MEL    C06  532   2.444   1.413   2.907  0.3167 -0.2885  0.4652
   36MEL    N07  533   2.393   1.520   2.968 -0.0151 -0.2451 -0.5941
   36MEL    N08  534   2.539   1.434   2.816 -0.0362  0.0298  0.4076
   36MEL    H09  535   2.691   1.240   2.595  1.8568 -1.1188 -0.1191
   36MEL    H0A  536   2.720   1.411   2.641  1.5364 -0.7797 -1.4404
   36MEL    H0B  537   2.343   1.024   2.772 -0.0861 -1.5380  0.3348
   36MEL    H0C  538   2.237   1.080   2.900 -0.4404 -1.4231 -2.2298
   36MEL    H0D  539   2.428   1.612   2.963  1.8768  0.4349 -1.5367
   36MEL    H0E  540   2.317   1.517   3.037 -3.4397  0.1359  3.3138
   37MEL    N00  541   3.012   1.912   0.645 -0.0463 -0.5434  0.2103
   37MEL    C01  542   2.909   1.919   0.731 -0.2519  0.1422 -0.8632
   37MEL    N02  543   2.842   2.033   0.739 -0.1793  0.3444 -0.1065
   37MEL    C03  544   2.739   2.035   0.830  0.0428  0.1704  0.2007
   37MEL    N04  545   2.677   2.150   0.845 -0.6998  0.5243  0.1935
   37MEL    N05  546   2.709   1.926   0.910  0.1470 -0.1063 -0.0218
   37MEL    C06  547   2.785   1.820   0.892  0.1863  0.4314 -0.0531
   37MEL    N07  548   2.764   1.714   0.971  0.4689 -0.9462 -0.1522
   37MEL    N08  549   2.891   1.811   0.807  0.3884 -0.4134 -0.0523
   37MEL    H09  550   3.038   1.999   0.598  1.1858 -0.9322  2.6945
   37MEL    H0A  551   3.069   1.825   0.640  1.6345  1.3136  1.0917
   37MEL    H0B  552   2.692   2.223   0.772 -0.2009 -0.6509  1.7100
   37MEL    H0C  553   2.597   2.148   0.903  2.3653 -0.5313 -2.4139
   37MEL    H0D  554   2.823   1.636   0.953  1.3368  2.4942 -1.8958
   37MEL    H0E  555   2.680   1.715   1.032 -1.2973  0.3543 -3.4288
   38MEL    N00  556   2.482   0.948   0.691 -0.3395  0.6712  0.0225
   38MEL    C01  557   2.581   0.940   0.602  0.1511  0.8793  0.1996
   38MEL    N02  558   2.656   0.828   0.598 -0.1553 -0.1347  0.6404
   38MEL    C03  559   2.752   0.835   0.507  0.4785  0.4109  0.2109
   38MEL    N04  560   2.828   0.733   0.479  0.4397 -0.1506  0.4727
   38MEL    N05  561   2.785   0.945   0.431  0.3989 -0.9459  0.2307
   38MEL    C06  562   2.703   1.050   0.452 -0.8679  0.2266  0.0180
   38MEL    N07  563   2.729   1.160   0.383 -0.3585  0.0182 -0.3529
   38MEL    N08  564   2.599   1.053   0.532  0.1616  0.0291 -0.4670
   38MEL    H09  565   2.458   0.863   0.745  1.7851  0.2123  0.1600
   38MEL    H0A  566   2.438   1.040   0.709  0.1704 -0.5535 -0.2014
   38MEL    H0B  567   2.809   0.657   0.543 -0.4285  0.7699 -1.0709
   38MEL    H0C  568   2.910   0.756   0.423 -0.0812 -1.3855  2.2088
   38MEL    H0D  569   2.695   1.250   0.410  0.4516 -2.5516  0.0733
   38MEL    H0E  570   2.806   1.158   0.314 -1.5889 -1.5989  0.3053
   39MEL    N00  571   3.017   0.092   0.711  0.6600 -0.0090  0.8680
   39MEL    C01  572   3.102   0.100   0.613  0.4312 -0.4891 -0.0089
   39MEL    N02  573   3.171   0.217   0.608  0.2479 -1.2139 -0.7043
   39MEL    C03  574   3.263   0.227   0.509  0.6244 -0.1236 -0.1015
   39MEL    N04  575   3.326   0.341   0.488  0.3615  0.3584 -0.7310
   39MEL    N05  576   3.299   0.128   0.430 -0.2563  0.4794 -0.2666
   39MEL    C06  577   3.221   0.020   0.437 -0.3283 -0.4745  0.4358
   39MEL    N07  578   3.249  -0.081   0.360  0.1523 -0.5040  0.3217
   39MEL    N08  579   3.121  -0.004   0.528  0.2230 -0.1395 -0.2297
   39MEL    H09  580   2.992   0.173   0.765 -0.3425 -0.1076 -2.4895
   39MEL    H0A  581   2.955   0.010   0.724  1.4671  0.7757 -1.3539
   39MEL    H0B  582   3.309   0.409   0.564 -1.6916 -0.2322  1.2900
   39MEL    H0C  583   3.415   0.340   0.442 -0.6446  1.2692 -0.5139
   39MEL    H0D  584   3.184  -0.159   0.356  0.4267  0.4461 -1.1748
   39MEL    H0E  585   3.327  -0.075   0.294  0.1327  3.2939 -0.3051
   40MEL    N00  586   0.493   1.322   0.616  0.8397  0.9248 -0.4083
   40MEL    C01  587   0.389   1.321   0.702 -0.1696 -0.4273 -0.7246
   40MEL    N02  588   0.324   1.202   0.716 -0.2868  0.4859  0.0779
   40MEL    C03  589   0.226   1.202   0.810  0.9528  0.6463 -0.0254
   40MEL    N04  590   0.160   1.093   0.832  0.0171 -0.4489  0.3416
   40MEL    N05  591   0.199   1.304   0.897 -0.5025 -0.2909 -0.2683
   40MEL    C06  592   0.277   1.414   0.880 -0.2609 -0.5069 -0.3029
   40MEL    N07  593   0.241   1.519   0.953 -0.1055  0.0861  0.3779
   40MEL    N08  594   0.366   1.433   0.782 -0.6576  0.2531 -0.2438
   40MEL    H09  595   0.516   1.240   0.567  0.7199 -0.1800 -1.4813
   40MEL    H0A  596   0.553   1.407   0.597 -0.4402  1.4632  3.6069
   40MEL    H0B  597   0.154   1.019   0.758 -1.3583  3.7294  2.6074
   40MEL    H0C  598   0.077   1.100   0.891  1.9422 -0.8765  0.8113
   40MEL    H0D  599   0.294   1.610   0.943  2.1057 -1.3340  1.1720
   40MEL    H0E  600   0.154   1.528   1.006  1.2037 -0.1125  1.3788
   41MEL    N00  601   2.739   1.926   1.307  0.3522 -0.7994  0.5915
   41MEL    C01  602   2.646   1.936   1.404  0.5508 -0.7718  0.4368
   41MEL    N02  603   2.567   2.048   1.407 -0.3129  0.1918  0.2423
   41MEL    C03  604   2.467   2.039   1.502  0.4380 -0.0906 -0.2613
   41MEL    N04  605   2.393   2.150   1.516 -0.4591 -0.0714  0.2630
   41MEL    N05  606   2.432   1.932   1.573  0.1951  0.0692  1.0722
   41MEL    C06  607   2.516   1.830   1.560  0.2750  0.3051  0.0578
   41MEL    N07  608   2.493   1.728   1.639  0.3929 -0.0319  0.3797
   41MEL    N08  609   2.626   1.819   1.473 -0.7636 -0.1067  0.3903
   41MEL    H09  610   2.766   2.016   1.263  0.2477  2.3340  0.3506
   41MEL    H0A  611   2.798   1.841   1.297  1.5242 -0.9569  1.7133
   41MEL    H0B  612   2.411   2.227   1.454  0.4515 -0.5499 -1.3168
   41MEL    H0C  613   2.309   2.152   1.566 -0.4228 -1.7028  1.2527
   41MEL    H0D  614   2.549   1.644   1.631  1.4717  0.6068 -0.4886
   41MEL    H0E  615   2.404   1.730   1.692  0.2590  0.6897 -0.1461
   42MEL    N00  616   2.199   0.937   1.387 -0.9187 -0.3356  0.2217
   42MEL    C01  617   2.289   0.937   1.293 -0.4991  0.3888  0.6283
   42MEL    N02  618   2.358   0.821   1.274  0.0510 -0.1814  0.4176
   42MEL    C03  619   2.460   0.826   1.192  0.0374  0.5171 -0.3965
   42MEL    N04  620   2.537   0.721   1.184  0.3870  0.3436 -0.7505
   42MEL    N05  621   2.499   0.933   1.121 -0.0579  0.3097 -0.5690
   42MEL    C06  622   2.431   1.049   1.140  0.5506 -0.5341  0.2270
   42MEL    N07  623   2.466   1.158   1.075 -0.0995  0.2300  0.0861
   42MEL    N08  624   2.326   1.057   1.232  0.8206  0.1709 -0.2353
   42MEL    H09  625   2.172   0.843   1.422 -0.4230 -1.7806 -1.4786
   42MEL    H0A  626   2.147   1.026   1.413 -1.6504  1.9149  1.2679
   42MEL    H0B  627   2.524   0.644   1.248  1.0285 -0.1119 -3.4154
   42MEL    H0C  628   2.630   0.729   1.140  1.4195  3.1630 -0.9422
   42MEL    H0D  629   2.416   1.243   1.096 -1.9925 -0.2324 -0.6627
   42MEL    H0E  630   2.554   1.148   1.012  0.0388 -0.0637  0.3464
   43MEL    N00  631   2.713   0.124   1.366 -0.2111 -0.0717 -0.3408
   43MEL    C01  632   2.815   0.124   1.285 -0.4558  0.1208 -0.0165
   43MEL    N02  633   2.875   0.241   1.259  0.4173  0.2276 -0.1089
   43MEL    C03  634   2.978   0.233   1.174  0.9765  0.0719  0.2759
   43MEL    N04  635   3.030   0.352   1.143  0.0889 -0.2339 -0.1703
   43MEL    N05  636   3.014   0.125   1.102  0.7710  0.1862 -0.3554
   43MEL    C06  637   2.941   0.015   1.135 -0.1108  0.2009  0.3888
   43MEL    N07  638   2.967  -0.096   1.066  0.0310 -0.0156  0.2239
   43MEL    N08  639   2.840   0.006   1.226 -0.2265  0.5519  0.0394
   43MEL    H09  640   2.682   0.210   1.412  1.7788 -0.0217 -0.3020
   43MEL    H0A  641   2.664   0.035   1.375  2.2650  0.0620  0.9733
   43MEL    H0B  642   3.006   0.433   1.200 -0.6919  2.2314 -3.0546
   43MEL    H0C  643   3.124   0.343   1.099  1.5724  1.4671 -1.4338
   43MEL    H0D  644   2.911  -0.185   1.094 -0.7732 -0.2048  0.2742
   43MEL    H0E  645   3.058  -0.100   1.015 -4.4164 -0.5666 -3.0096
   44MEL    N00  646   0.221   1.316   1.324 -0.4396  0.0966 -0.1694
   44MEL    C01  647   0.112   1.326   1.405 -0.8538 -0.6475  0.4709
   44MEL    N02  648   0.040   1.212   1.424 -0.4784  0.4558 -0.2106
   44MEL    C03  649  -0.059   1.220   1.512 -0.6334 -0.6045 -0.1178
   44MEL    N04  650  -0.123   1.109   1.531  0.2026 -0.0382 -0.6917
   44MEL    N05  651  -0.099   1.333   1.582 -0.5829  0.8898  0.0242
   44MEL    C06  652  -0.017   1.438   1.555 -0.2577 -0.0113 -0.0505
   44MEL    N07  653  -0.028   1.547   1.623  0.4011  0.8254 -0.6307
   44MEL    N08  654   0.091   1.437   1.475  0.0694  0.3367  0.2670
   44MEL    H09  655   0.256   1.220   1.301  2.0821 -1.6643  0.2904
   44MEL    H0A  656   0.275   1.396   1.296  4.7847 -1.1530  0.8343
   44MEL    H0B  657  -0.096   1.028   1.472 -0.1723 -0.6986  0.9477
   44MEL    H0C  658  -0.215   1.115   1.568  0.9681  0.2245  0.8339
   44MEL    H0D  659   0.040   1.619   1.639 -0.6140 -3.7331 -2.1060
   44MEL    H0E  660  -0.111   1.557   1.683  1.6258  1.6407  2.2311
   45MEL    N00  661   2.446   1.913   1.972  0.2681  0.0142  0.2145
   45MEL    C01  662   2.347   1.912   2.062  0.2757 -0.3728 -0.1217
   45MEL    N02  663   2.290   2.030   2.087 -0.5052 -0.0036 -0.3285
   45MEL    C03  664   2.172   2.023   2.166 -0.4108 -0.1089  0.2785
   45MEL    N04  665   2.096   2.135   2.199 -0.1082 -0.2859 -0.0349
   45MEL    N05  666   2.141   1.914   2.238 -0.0080 -0.0417  0.0747
   45MEL    C06  667   2.227   1.811   2.222  0.6679  0.9757  0.8245
   45MEL    N07  668   2.197   1.704   2.290 -0.2632  0.1966  0.1033
   45MEL    N08  669   2.329   1.806   2.136 -0.8152  0.2094  0.2599
   45MEL    H09  670   2.470   2.000   1.917 -0.4037  1.7547 -1.2938
   45MEL    H0A  671   2.505   1.824   1.960  1.1188 -1.7644  0.1683
   45MEL    H0B  672   2.110   2.217   2.136 -0.0172  0.7785  1.9430
   45MEL    H0C  673   2.012   2.117   2.251  0.3000  2.5251  0.0083
   45MEL    H0D  674   2.264   1.626   2.289 -1.3527 -1.1097 -1.2919
   45MEL    H0E  675   2.110   1.703   2.353  1.0144 -0.4893  0.3620
   46MEL    N00  676   1.964   0.982   2.083 -0.4167  0.4999  0.2703
   46MEL    C01  677   2.049   0.990   1.976 -0.0602  0.5590 -0.0705
   46MEL    N02  678   2.113   0.875   1.962  0.7545  0.1918  0.2707
   46MEL    C03  679   2.191   0.877   1.849  0.2189  1.0084  0.5597
   46MEL    N04  680   2.257   0.765   1.832 -0.5919  0.6502  0.1822
   46MEL    N05  681   2.214   0.975   1.762 -0.3156  0.3798  0.0269
   46MEL    C06  682   2.154   1.090   1.798 -0.1021 -0.8335  0.4531
   46MEL    N07  683   2.197   1.195   1.728  0.3997 -0.4440  0.2771
   46MEL    N08  684   2.058   1.100   1.897 -0.0157  0.2652 -0.4291
   46MEL    H09  685   1.946   0.895   2.131 -3.4275  0.6929 -1.4698
   46MEL    H0A  686   1.907   1.067   2.104  0.0856 -0.8377 -1.6055
   46MEL    H0B  687   2.261   0.704   1.918 -0.6088 -1.0480 -1.4615
   46MEL    H0C  688   2.342   0.751   1.773 -1.1783  2.0465 -1.7244
   46MEL    H0D  689   2.143   1.281   1.730  1.0374  1.8033  0.2489
   46MEL    H0E  690   2.277   1.196   1.666 -0.4894  1.0783 -0.2092
   47MEL    N00  691   2.429   0.113   2.046 -0.4699 -0.0128  0.4896
   47MEL    C01  692   2.525   0.111   1.954 -0.7136 -0.3008 -0.3070
   47MEL    N02  693   2.582   0.232   1.929  0.0668  0.1759  0.2985
   47MEL    C03  694   2.689   0.224   1.845 -0.0079  0.0488 -0.2356
   47MEL    N04  695   2.757   0.337   1.818 -0.0646  0.6626 -0.0937
   47MEL    N05  696   2.725   0.120   1.774  0.2790  0.5821  0.3749
   47MEL    C06  697   2.646   0.013   1.802 -0.3409  0.4939 -0.0102
   47MEL    N07  698   2.698  -0.101   1.750  0.0620  0.3056 -0.2045
   47MEL    N08  699   2.543   0.003   1.883 -0.6829 -0.7241  0.0107
   47MEL    H09  700   2.395   0.202   2.079  0.5883 -0.0011 -1.0240
   47MEL    H0A  701   2.385   0.024   2.068  3.1028  0.8350  0.2414
   47MEL    H0B  702   2.750   0.420   1.880  1.5010  1.9082 -0.8471
   47MEL    H0C  703   2.847   0.340   1.765 -1.1713 -0.0108  2.1093
   47MEL    H0D  704   2.645  -0.187   1.770  0.9124 -0.9411 -2.5304
   47MEL    H0E  705   2.778  -0.103   1.681  1.4372 -0.3070  1.7413
   48MEL    N00  706   2.974   1.316   1.986  0.5918  0.1392 -0.3156
   48MEL    C01  707   2.874   1.315   2.078 -1.2457  0.5548  0.6312
   48MEL    N02  708   2.818   1.198   2.106 -0.2088 -0.0896 -0.4346
   48MEL    C03  709   2.705   1.207   2.183  0.0544 -0.4009  0.6635
   48MEL    N04  710   2.642   1.092   2.197  0.1908 -0.1425 -0.5242
   48MEL    N05  711   2.668   1.314   2.246 -0.6003  0.0635 -0.9270
   48MEL    C06  712   2.745   1.428   2.228 -0.2667  0.3552 -0.7479
   48MEL    N07  713   2.709   1.531   2.303  0.0902 -0.2061  0.4165
   48MEL    N08  714   2.845   1.435   2.139 -0.8617 -0.6825  0.5200
   48MEL    H09  715   3.009   1.218   1.969 -0.0138  2.5446 -0.5770
   48MEL    H0A  716   3.024   1.398   1.960  0.6578  0.1077  0.0660
   48MEL    H0B  717   2.665   1.024   2.125 -0.4271  2.6005 -1.0024
   48MEL    H0C  718   2.547   1.094   2.221 -0.9410  0.8868 -0.4992
   48MEL    H0D  719   2.770   1.620   2.307  0.2518 -0.1443  0.0274
   48MEL    H0E  720   2.633   1.522   2.367 -0.5262  1.5981  0.5874
   49MEL    N00  721   0.128   0.456   2.639 -0.7167  0.5073  0.0803
   49MEL    C01  722   0.037   0.462   2.740  0.4074 -0.4453 -0.5387
   49MEL    N02  723  -0.030   0.575   2.750 -0.4456  0.2018  0.2465
   49MEL    C03  724  -0.123   0.574   2.848 -0.0401 -0.0599 -0.0468
   49MEL    N04  725  -0.185   0.688   2.864  0.2030  0.2877  0.8709
   49MEL    N05  726  -0.156   0.472   2.932 -0.2329 -0.1366 -0.6852
   49MEL    C06  727  -0.080   0.362   2.912 -0.2974  0.2757 -0.8107
   49MEL    N07  728  -0.101   0.247   2.973 -0.0566  0.1575  0.5269
   49MEL    N08  729   0.024   0.355   2.825 -0.8195  0.5420 -0.2590
   49MEL    H09  730   0.137   0.531   2.567 -1.9871 -1.0384  1.3631
   49MEL    H0A  731   0.180   0.373   2.624 -1.4030 -1.1708  1.8068
   49MEL    H0B  732  -0.156   0.752   2.791  0.5365  1.0414 -0.3630
   49MEL    H0C  733  -0.272   0.700   2.915  0.9431 -1.5019  0.8296
   49MEL    H0D  734  -0.043   0.164   2.948 -2.0390 -0.5952 -0.6544
   49MEL    H0E  735  -0.181   0.248   3.033  0.3458 -1.1726 -0.1774
   50MEL    N00  736   0.763   1.672   0.032 -0.0873  0.3902 -0.9127
   50MEL    C01  737   0.859   1.671  -0.057 -0.2350 -0.2530 -0.4732
   50MEL    N02  738   0.910   1.549  -0.081  0.0362  0.0902  0.0141
   50MEL    C03  739   1.011   1.548  -0.168 -0.0325 -0.3433  0.0731
   50MEL    N04  740   1.084   1.442  -0.193  0.1647  0.3344  0.2653
   50MEL    N05  741   1.048   1.658  -0.237 -0.4541 -0.1160  0.3244
   50MEL    C06  742   0.974   1.774  -0.217  0.1479 -0.0562 -0.1642
   50MEL    N07  743   1.018   1.883  -0.291 -0.5031 -0.1212 -0.0713
   50MEL    N08  744   0.869   1.786  -0.131 -0.7210 -0.2946  0.5511
   50MEL    H09  745   0.714   1.592   0.071 -2.8316 -0.9129  0.7938
   50MEL    H0A  746   0.728   1.768   0.052 -0.2288  2.3133 -0.8441
   50MEL    H0B  747   1.066   1.355  -0.135 -0.5024 -0.9757  1.5125
   50MEL    H0C  748   1.168   1.461  -0.252  1.8244  0.3210  0.6457
   50MEL    H0D  749   0.970   1.966  -0.268  1.3030  2.0505  1.0311
   50MEL    H0E  750   1.108   1.884  -0.349 -0.0441  1.8228 -1.4801
   51MEL    N00  751   1.279   0.819   0.048 -0.6378 -0.7684  0.8577
   51MEL    C01  752   1.355   0.829  -0.057 -0.5293 -0.1512 -0.1857
   51MEL    N02  753   1.424   0.942  -0.069  0.4427 -0.1835  0.0940
   51MEL    C03  754   1.518   0.942  -0.166 -0.1413  0.0987 -0.5983
   51MEL    N04  755   1.596   1.048  -0.169  0.6952 -0.6442 -0.1058
   51MEL    N05  756   1.555   0.835  -0.244  0.6236  0.5007  0.3530
   51MEL    C06  757   1.471   0.730  -0.225 -0.3142  0.0697 -0.0476
   51MEL    N07  758   1.496   0.626  -0.303 -0.4113  0.0735  0.3274
   51MEL    N08  759   1.377   0.715  -0.125 -0.4676 -0.9849  1.2143
   51MEL    H09  760   1.251   0.912   0.088 -2.7494 -0.9087 -2.2113
   51MEL    H0A  761   1.237   0.731   0.070 -2.9009  0.1091 -1.2433
   51MEL    H0B  762   1.585   1.116  -0.093  2.0793 -0.6223  0.0982
   51MEL    H0C  763   1.682   1.046  -0.222  1.5084 -1.5187  1.2454
   51MEL    H0D  764   1.443   0.541  -0.275  0.0913  1.8421 -2.1848
   51MEL    H0E  765   1.582   0.611  -0.362  1.1387 -1.2946 -3.3246
   52MEL    N00  766   0.668   2.036   2.670  0.6708 -0.0591  0.0465
   52MEL    C01  767   0.568   2.040   2.758 -0.0411  0.9908  0.3998
   52MEL    N02  768   0.501   1.923   2.772  0.3172 -0.5895 -0.1636
   52MEL    C03  769   0.398   1.932   2.858 -0.6006  0.6132 -0.1366
   52MEL    N04  770   0.322   1.819   2.886  0.1026 -0.1444 -0.0875
   52MEL    N05  771   0.361   2.041   2.932 -1.0360  0.6050  0.3698
   52MEL    C06  772   0.438   2.150   2.909  0.4227  0.4357  0.1144
   52MEL    N07  773   0.404   2.257   2.978 -0.2439 -0.6207 -0.2956
   52MEL    N08  774   0.544   2.153   2.825 -1.0036 -0.5002 -0.2709
   52MEL    H09  775   0.695   1.952   2.621 -0.7632  2.4215 -1.9980
   52MEL    H0A  776   0.714   2.127   2.649 -0.3710 -1.7097 -0.0525
   52MEL    H0B  777   0.335   1.742   2.825  0.9734  1.9918  0.3776
   52MEL    H0C  778   0.234   1.822   2.941 -0.1482 -0.4320  0.0292
   52MEL    H0D  779   0.458   2.342   2.965  1.8072  1.0725 -0.1186
   52MEL    H0E  780   0.326   2.263   3.044  0.5739  0.5893  1.0257
   53MEL    N00  781   0.983   0.470   0.636 -0.8769 -0.0949  0.5724
   53MEL    C01  782   0.888   0.473   0.726 -0.8668  0.2532  0.1862
   53MEL    N02  783   0.820   0.589   0.743  0.0996 -0.5446  0.0558
   53MEL    C03  784   0.719   0.588   0.828 -0.9015 -0.1843  0.1674
   53MEL    N04  785   0.657   0.704   0.850 -0.0795  0.3203  0.2112
   53MEL    N05  786   0.684   0.476   0.898  0.2441  0.2490 -0.4312
   53MEL    C06  787   0.758   0.368   0.877 -0.2475 -0.3020 -0.4423
   53MEL    N07  788   0.727   0.260   0.944  0.1828  0.1957 -0.6764
   53MEL    N08  789   0.868   0.361   0.802  0.2804  0.1251  0.3372
   53MEL    H09  790   1.011   0.556   0.583  0.2327 -2.6049 -0.6935
   53MEL    H0A  791   1.037   0.389   0.625 -0.7863  3.0772  1.3057
   53MEL    H0B  792   0.677   0.779   0.778  0.0209  0.6727 -2.3010
   53MEL    H0C  793   0.578   0.707   0.911  1.6965 -0.1332 -0.5629
   53MEL    H0D  794   0.789   0.183   0.936  2.3701  2.3218  0.3347
   53MEL    H0E  795   0.642   0.251   1.011  0.3681 -0.5102  0.3173
   54MEL    N00  796   0.489   1.681   0.690  0.3991  0.2083 -0.1640
   54MEL    C01  797   0.573   1.682   0.592 -0.3305 -0.1113 -0.6678
   54MEL    N02  798   0.628   1.565   0.577 -0.4355 -0.4996  0.2928
   54MEL    C03  799   0.735   1.561   0.501 -0.2527  0.5899  1.1656
   54MEL    N04  800   0.801   1.446   0.481  1.1484 -0.6099 -0.6577
   54MEL    N05  801   0.791   1.664   0.436  0.1378  0.3701  0.2679
   54MEL    C06  802   0.705   1.774   0.440  0.1126  0.1633 -0.0909
   54MEL    N07  803   0.748   1.882   0.374  0.3103 -0.9339  0.0638
   54MEL    N08  804   0.595   1.790   0.515  0.5968  0.1782  0.2779
   54MEL    H09  805   0.451   1.590   0.718  1.6025 -0.6677  1.6373
   54MEL    H0A  806   0.418   1.752   0.714 -2.2735  0.7448  0.0783
   54MEL    H0B  807   0.790   1.360   0.546  2.0953 -1.1960 -0.6503
   54MEL    H0C  808   0.886   1.455   0.421 -4.3133 -1.3107  0.0425
   54MEL    H0D  809   0.681   1.962   0.376 -1.1857  0.7056  2.4308
   54MEL    H0E  810   0.833   1.885   0.318  0.4412 -0.1404  4.6738
   55MEL    N00  811   0.999   0.836   0.722 -0.5746 -0.4648  0.2501
   55MEL    C01  812   1.094   0.831   0.631 -0.5521  0.0105 -0.1308
   55MEL    N02  813   1.148   0.950   0.600  0.5254 -0.5077  0.4402
   55MEL    C03  814   1.247   0.944   0.507  0.1828  0.2722 -0.1988
   55MEL    N04  815   1.318   1.057   0.486  0.2690  0.0720  0.0967
   55MEL    N05  816   1.269   0.845   0.427  0.0343  0.5678  0.0583
   55MEL    C06  817   1.201   0.735   0.454  0.2091  0.2527  0.3597
   55MEL    N07  818   1.221   0.628   0.380 -0.4488  0.1601  0.2129
   55MEL    N08  819   1.112   0.717   0.555  0.2539 -0.9743  0.3218
   55MEL    H09  820   0.965   0.927   0.762  2.6244  1.6736 -3.1376
   55MEL    H0A  821   0.959   0.744   0.747 -0.6450  1.4696 -0.9954
   55MEL    H0B  822   1.311   1.135   0.553 -3.4799 -1.4298 -1.4940
   55MEL    H0C  823   1.393   1.046   0.419 -0.3859 -0.7417  0.8074
   55MEL    H0D  824   1.171   0.543   0.402 -1.6485 -2.4527  0.3137
   55MEL    H0E  825   1.297   0.629   0.309 -0.0774 -0.8919  1.6101
   56MEL    N00  826   1.493   2.036   0.663  0.3164 -0.2898 -0.3202
   56MEL    C01  827   1.389   2.031   0.747  0.0811 -0.8076  0.2947
   56MEL    N02  828   1.322   1.914   0.772 -0.7151 -0.2036  0.3941
   56MEL    C03  829   1.224   1.919   0.860 -0.0047  0.2280  0.3287
   56MEL    N04  830   1.155   1.802   0.876 -0.2292  0.2814 -0.6958
   56MEL    N05  831   1.200   2.031   0.939 -0.2599  0.6154  0.0547
   56MEL    C06  832   1.271   2.141   0.901  0.4770 -0.3075  0.0926
   56MEL    N07  833   1.242   2.257   0.970  0.0339 -0.1512  1.4084
   56MEL    N08  834   1.366   2.149   0.810  0.7299  0.1168 -0.1499
   56MEL    H09  835   1.529   1.950   0.619  0.3861  0.9942 -1.1496
   56MEL    H0A  836   1.524   2.130   0.627 -2.8061 -1.8713 -2.6659
   56MEL    H0B  837   1.178   1.727   0.807  0.5152 -0.5144  1.8923
   56MEL    H0C  838   1.062   1.807   0.922 -0.2829  2.2259 -0.7902
   56MEL    H0D  839   1.303   2.341   0.945  3.9837  1.4121 -1.4008
   56MEL    H0E  840   1.160   2.262   1.037  0.1893 -0.0784  2.4338
   57MEL    N00  841   0.725   0.491   1.297 -0.5472 -0.6782 -0.6804
   57MEL    C01  842   0.636   0.489   1.394  0.0425 -1.2194 -0.1586
   57MEL    N02  843   0.568   0.607   1.417 -0.3537 -0.4429  0.5589
   57MEL    C03  844   0.460   0.594   1.499 -0.6590 -0.5970  0.4579
   57MEL    N04  845   0.383   0.697   1.519  0.2149 -0.6330 -0.7156
   57MEL    N05  846   0.429   0.494   1.574  0.1857  0.2563  1.1570
   57MEL    C06  847   0.514   0.391   1.558  0.5562 -0.3173 -0.4384
   57MEL    N07  848   0.495   0.283   1.635 -0.3167  0.5725  0.1137
   57MEL    N08  849   0.608   0.381   1.465  0.2064  0.2996  0.2415
   57MEL    H09  850   0.763   0.581   1.269 -2.3175 -0.1059 -0.9931
   57MEL    H0A  851   0.784   0.412   1.270  0.2769 -0.5301  0.8995
   57MEL    H0B  852   0.392   0.775   1.452 -0.9329 -1.5946  1.4140
   57MEL    H0C  853   0.303   0.690   1.580 -1.8241  0.7959  1.3341
   57MEL    H0D  854   0.549   0.203   1.622 -0.3945 -1.2209  0.7510
   57MEL    H0E  855   0.430   0.283   1.716 -1.3980 -3.4205  0.9179
   58MEL    N00  856   0.224   1.680   1.392  0.3738  0.3646 -0.2215
   58MEL    C01  857   0.323   1.673   1.301 -0.0159  1.3086  0.0809
   58MEL    N02  858   0.372   1.551   1.273  0.2066 -0.5842  0.1312
   58MEL    C03  859   0.461   1.549   1.176  0.2267  0.2931 -0.4996
   58MEL    N04  860   0.525   1.435   1.151  0.0831  0.0313 -0.1617
   58MEL    N05  861   0.497   1.659   1.101  0.1848 -0.0624  0.4414
   58MEL    C06  862   0.433   1.773   1.137  0.1785 -0.4002 -0.8005
   58MEL    N07  863   0.472   1.883   1.077 -0.8280  0.3272  0.1987
   58MEL    N08  864   0.335   1.789   1.229  0.5743  0.0973 -0.5189
   58MEL    H09  865   0.171   1.597   1.429  0.1629  1.3741  0.4557
   58MEL    H0A  866   0.187   1.772   1.416  0.6248 -1.3939 -2.4875
   58MEL    H0B  867   0.514   1.365   1.228 -0.6828 -0.3963 -1.1151
   58MEL    H0C  868   0.604   1.436   1.087 -0.4853  1.6098 -0.1890
   58MEL    H0D  869   0.435   1.976   1.092 -1.4405  0.8526  2.5178
   58MEL    H0E  870   0.553   1.878   1.013  0.8310 -1.2186  0.1339
   59MEL    N00  871   0.714   0.841   1.377 -0.5879  0.1779  0.2543
   59MEL    C01  872   0.811   0.842   1.284  0.2457 -0.2056 -0.4377
   59MEL    N02  873   0.872   0.960   1.269  0.1613  0.1857 -0.0849
   59MEL    C03  874   0.974   0.958   1.184  0.6211 -1.2376 -0.3441
   59MEL    N04  875   1.047   1.071   1.177  0.3283  0.4503  0.5981
   59MEL    N05  876   1.007   0.858   1.104  0.3622  0.6130  0.6114
   59MEL    C06  877   0.939   0.748   1.125  0.7657 -0.3080  0.1652
   59MEL    N07  878   0.974   0.648   1.048 -0.0378 -0.3316  0.2317
   59MEL    N08  879   0.837   0.731   1.212  0.4198 -0.4179 -0.5942
   59MEL    H09  880   0.676   0.932   1.414  0.3544 -0.7492  2.2113
   59MEL    H0A  881   0.656   0.754   1.383  0.7805 -2.1550  1.2092
   59MEL    H0B  882   1.022   1.144   1.244 -1.2872 -0.3597  0.1125
   59MEL    H0C  883   1.134   1.082   1.131 -0.5383 -1.1349  0.3650
   59MEL    H0D  884   0.920   0.563   1.062  0.7747 -0.2899  0.0850
   59MEL    H0E  885   1.042   0.646   0.971  0.9456  2.1458  0.3540
   60MEL    N00  886   1.201   2.068   1.308  0.1755 -0.6606  0.1662
   60MEL    C01  887   1.110   2.062   1.404  0.2964 -0.5434 -0.2321
   60MEL    N02  888   1.051   1.943   1.427 -1.3158 -0.5318 -0.6725
   60MEL    C03  889   0.946   1.945   1.506  0.2080  0.2597 -0.1921
   60MEL    N04  890   0.884   1.827   1.523  0.2972 -0.2746 -0.6892
   60MEL    N05  891   0.903   2.056   1.578  0.2883 -0.0757 -0.3157
   60MEL    C06  892   0.973   2.168   1.554  0.2403 -0.2915  0.0141
   60MEL    N07  893   0.954   2.273   1.632 -0.0728  0.1061 -0.5275
   60MEL    N08  894   1.078   2.176   1.469 -0.0389  0.3976 -0.1671
   60MEL    H09  895   1.221   1.979   1.269 -3.8744  2.2588  2.8003
   60MEL    H0A  896   1.249   2.157   1.275  1.5144 -2.7483  2.7926
   60MEL    H0B  897   0.910   1.750   1.459 -1.4227  1.1414  0.5184
   60MEL    H0C  898   0.794   1.826   1.571 -0.7962 -1.2794 -1.8734
   60MEL    H0D  899   1.023   2.347   1.632  0.9304 -1.6702  0.0696
   60MEL    H0E  900   0.876   2.261   1.701  4.0117  1.5566 -0.8630
   61MEL    N00  901   0.422   0.493   1.994  0.4915 -0.8097 -0.7341
   61MEL    C01  902   0.325   0.498   2.084 -0.0006 -0.3560 -0.2240
   61MEL    N02  903   0.257   0.612   2.094  0.5582  0.0170 -0.3450
   61MEL    C03  904   0.160   0.605   2.184  0.0043 -0.6117 -0.0068
   61MEL    N04  905   0.090   0.720   2.199  0.3550 -0.2435 -0.1711
   61MEL    N05  906   0.124   0.502   2.262 -0.2771  0.2380 -0.0161
   61MEL    C06  907   0.204   0.395   2.238  0.3221 -0.4077 -0.2216
   61MEL    N07  908   0.168   0.281   2.293  0.3906 -0.3419  0.0339
   61MEL    N08  909   0.304   0.385   2.149 -0.3101  0.0985 -0.4086
   61MEL    H09  910   0.458   0.573   1.940  0.0853  2.1672  0.3641
   61MEL    H0A  911   0.458   0.398   1.974 -0.0346  0.7916  0.5306
   61MEL    H0B  912   0.111   0.797   2.130  1.5774  1.0321  0.3134
   61MEL    H0C  913   0.014   0.720   2.264  0.2477 -0.4736 -1.0391
   61MEL    H0D  914   0.237   0.208   2.285 -0.4624 -3.2836 -0.6733
   61MEL    H0E  915   0.089   0.272   2.364 -4.1847  1.0251  2.0618
   62MEL    N00  916   2.970   1.691   2.077 -0.5879 -0.1018 -0.4218
   62MEL    C01  917   3.069   1.697   1.987 -0.0860 -0.3367  0.1160
   62MEL    N02  918   3.126   1.577   1.960 -0.0067  0.2424  0.6090
   62MEL    C03  919   3.219   1.578   1.863  1.2851  0.7280  0.8395
   62MEL    N04  920   3.285   1.461   1.830  0.2194  0.0361  0.0348
   62MEL    N05  921   3.232   1.683   1.779 -0.7894  0.4430 -0.2831
   62MEL    C06  922   3.167   1.795   1.815  0.4974 -0.0996 -0.3227
   62MEL    N07  923   3.187   1.907   1.749 -1.1219 -0.3098 -0.5082
   62MEL    N08  924   3.077   1.802   1.914  0.3380 -0.1061  0.3663
   62MEL    H09  925   2.934   1.595   2.109  0.0670  0.1797  0.8122
   62MEL    H0A  926   2.918   1.777   2.096  0.3115 -1.5322  0.3052
   62MEL    H0B  927   3.269   1.387   1.897  1.4530 -1.9990 -0.2273
   62MEL    H0C  928   3.355   1.446   1.757  0.2781  0.4957 -1.6038
   62MEL    H0D  929   3.140   1.997   1.760 -1.5578  2.1447  0.2804
   62MEL    H0E  930   3.261   1.909   1.677  0.5195  0.6029 -0.8750
   63MEL    N00  931   0.428   0.856   2.057  0.5932  0.4564  0.1658
   63MEL    C01  932   0.518   0.853   1.957  0.1018  0.2770 -0.2176
   63MEL    N02  933   0.585   0.963   1.937 -0.5806 -0.6474 -0.5501
   63MEL    C03  934   0.697   0.950   1.856 -0.0218  0.9018 -0.4334
   63MEL    N04  935   0.763   1.064   1.832  0.7928  0.1950 -0.0247
   63MEL    N05  936   0.738   0.836   1.790 -0.0183 -0.0759 -1.0826
   63MEL    C06  937   0.660   0.732   1.817 -0.1317  0.5391  0.8568
   63MEL    N07  938   0.691   0.624   1.756 -0.2977 -0.4539  0.5250
   63MEL    N08  939   0.553   0.736   1.902 -0.2747  0.4785  0.0354
   63MEL    H09  940   0.394   0.952   2.093 -1.4438  1.1264  1.2786
   63MEL    H0A  941   0.382   0.771   2.092  0.0258 -4.5845 -0.0239
   63MEL    H0B  942   0.744   1.136   1.898  1.0237 -1.5387  1.1790
   63MEL    H0C  943   0.851   1.065   1.777  0.9786  0.8083 -0.8277
   63MEL    H0D  944   0.631   0.542   1.757 -2.0997 -0.6716  0.8120
   63MEL    H0E  945   0.779   0.622   1.701 -1.2691  0.0298  1.0149
   64MEL    N00  946   0.930   2.062   1.980  0.3467  0.5004  0.4878
   64MEL    C01  947   0.842   2.050   2.081  0.4348  0.7721 -0.3784
   64MEL    N02  948   0.774   1.934   2.092 -0.4309 -0.3322 -0.1396
   64MEL    C03  949   0.685   1.935   2.194  0.7077  0.0901  0.1508
   64MEL    N04  950   0.628   1.817   2.215  0.3616  0.4118  0.4007
   64MEL    N05  951   0.663   2.036   2.280  0.1251 -0.1514  0.4398
   64MEL    C06  952   0.727   2.147   2.250 -0.3171  0.6502 -0.1417
   64MEL    N07  953   0.694   2.251   2.328 -0.1377 -0.8918  0.9370
   64MEL    N08  954   0.824   2.161   2.157  0.6551  0.0913 -0.2817
   64MEL    H09  955   0.956   1.972   1.942  2.0637  0.1813  1.4745
   64MEL    H0A  956   1.000   2.140   1.966 -1.0142  1.4488  1.1334
   64MEL    H0B  957   0.631   1.748   2.138 -2.3260 -0.7298  2.5428
   64MEL    H0C  958   0.567   1.807   2.293 -1.8149  2.5789 -0.6674
   64MEL    H0D  959   0.734   2.341   2.306  0.8501 -0.7428 -1.9769
   64MEL    H0E  960   0.611   2.245   2.380  4.0660 -2.9460 -1.1208
   65MEL    N00  961   0.163   1.204   2.667  0.3748  0.4140  0.3785
   65MEL    C01  962   0.063   1.189   2.754 -0.6616 -0.2131  0.0961
   65MEL    N02  963  -0.018   1.295   2.757  0.3561 -0.1299 -0.1719
   65MEL    C03  964  -0.117   1.291   2.846 -0.1553  0.0265  0.3845
   65MEL    N04  965  -0.190   1.403   2.859  0.0728 -0.3200 -0.5177
   65MEL    N05  966  -0.144   1.184   2.924  0.6784 -0.6093 -0.2951
   65MEL    C06  967  -0.059   1.082   2.904  0.5257  0.3419 -0.4669
   65MEL    N07  968  -0.082   0.972   2.972 -0.8021  0.3774 -0.1736
   65MEL    N08  969   0.050   1.082   2.831  0.3867  0.6041  0.0639
   65MEL    H09  970   0.185   1.294   2.622 -1.3992  1.3658  1.7607
   65MEL    H0A  971   0.227   1.127   2.653 -0.1365  0.4399  3.8830
   65MEL    H0B  972  -0.186   1.477   2.790  0.3469  2.1646 -1.3893
   65MEL    H0C  973  -0.274   1.397   2.923  1.3873  3.3124 -1.1884
   65MEL    H0D  974  -0.024   0.893   2.954 -0.0863  1.4085  0.3144
   65MEL    H0E  975  -0.161   0.971   3.038 -0.4965 -0.7693  0.8738
   66MEL    N00  976   0.753   0.249   0.028 -0.0294  0.0913  0.3926
   66MEL    C01  977   0.849   0.244  -0.063  0.4474 -0.0800 -0.5318
   66MEL    N02  978   0.911   0.125  -0.083 -0.7347 -0.0794  0.0237
   66MEL    C03  979   1.015   0.125  -0.167 -0.4030  0.0355  0.5898
   66MEL    N04  980   1.072   0.007  -0.192 -0.7732  0.0137 -0.1022
   66MEL    N05  981   1.047   0.236  -0.242 -0.0790 -0.0069  0.3410
   66MEL    C06  982   0.973   0.349  -0.215  0.1286  0.9773  0.2056
   66MEL    N07  983   0.994   0.459  -0.282 -0.1752  0.3399  0.1190
   66MEL    N08  984   0.876   0.358  -0.127  0.2474 -0.9004  0.1110
   66MEL    H09  985   0.715   0.167   0.078  0.5414  0.6083  0.3609
   66MEL    H0A  986   0.714   0.345   0.047  2.3461  3.3724 -0.2512
   66MEL    H0B  987   1.046  -0.065  -0.129  3.1582  0.8122 -3.1972
   66MEL    H0C  988   1.166   0.002  -0.236  0.5309  1.4200  0.0123
   66MEL    H0D  989   0.926   0.534  -0.280 -3.0583  2.9998 -0.6306
   66MEL    H0E  990   1.083   0.466  -0.339 -0.2874 -2.8659 -0.1875
   67MEL    N00  991   1.255   1.535   0.030 -0.2677 -0.1456 -0.1573
   67MEL    C01  992   1.356   1.543  -0.055 -0.1416  0.3897  0.1711
   67MEL    N02  993   1.414   1.663  -0.064  0.5001 -0.4668 -0.6012
   67MEL    C03  994   1.513   1.665  -0.149  0.3697 -0.0890  0.6093
   67MEL    N04  995   1.577   1.780  -0.156  0.1941 -0.4859 -0.2479
   67MEL    N05  996   1.561   1.560  -0.216  0.0016  1.3609 -0.0243
   67MEL    C06  997   1.495   1.445  -0.198 -0.5500 -0.1018  0.0802
   67MEL    N07  998   1.536   1.341  -0.267  0.7911 -0.1187  0.3141
   67MEL    N08  999   1.385   1.427  -0.121  0.8692  0.0364  0.5405
   67MEL    H09 1000   1.225   1.617   0.079  0.7392 -1.7743  0.1351
   67MEL    H0A 1001   1.195   1.453   0.038 -0.2963  1.1368 -0.0178
   67MEL    H0B 1002   1.557   1.852  -0.082 -1.2267 -2.4117 -1.4630
   67MEL    H0C 1003   1.675   1.779  -0.187 -0.4661 -0.6031  3.9001
   67MEL    H0D 1004   1.489   1.256  -0.252  1.5741  1.8325 -2.0147
   67MEL    H0E 1005   1.616   1.344  -0.338 -2.8770 -0.0173 -0.4777
   68MEL    N00 1006   0.668   0.615   2.667  0.6749  0.0598  0.2440
   68MEL    C01 1007   0.562   0.610   2.747  0.7097 -0.9724 -0.3212
   68MEL    N02 1008   0.496   0.488   2.747  0.8223  0.3987  0.1000
   68MEL    C03 1009   0.396   0.487   2.837 -0.4068 -0.3530 -0.0728
   68MEL    N04 1010   0.324   0.381   2.827 -0.6581 -0.6151  0.1808
   68MEL    N05 1011   0.361   0.590   2.916  0.0946 -0.4736  0.3071
   68MEL    C06 1012   0.443   0.692   2.921  0.3028  0.1187 -0.1524
   68MEL    N07 1013   0.410   0.793   2.996 -0.1613 -0.4326  0.8209
   68MEL    N08 1014   0.555   0.705   2.846  0.2374 -0.2020 -0.4054
   68MEL    H09 1015   0.697   0.527   2.626 -2.1585  0.2200  1.5898
   68MEL    H0A 1016   0.730   0.694   2.653 -0.5098  0.8019  1.7258
   68MEL    H0B 1017   0.348   0.321   2.743  1.8848 -2.5259  1.4553
   68MEL    H0C 1018   0.233   0.375   2.866  1.3721 -2.3201 -2.3941
   68MEL    H0D 1019   0.479   0.862   3.009 -0.0466  0.0790 -1.2972
   68MEL    H0E 1020   0.320   0.796   3.052 -0.4478 -1.9628  2.8230
   69MEL    N00 1021   0.993   1.180   0.629 -0.7499  0.3701 -0.8665
   69MEL    C01 1022   0.895   1.181   0.721 -0.4296 -0.1042 -0.1867
   69MEL    N02 1023   0.826   1.295   0.737 -0.1549  0.8161 -0.2489
   69MEL    C03 1024   0.729   1.292   0.831  0.1939  0.1868 -0.0778
   69MEL    N04 1025   0.664   1.402   0.852 -0.4267  0.3621 -0.2369
   69MEL    N05 1026   0.712   1.193   0.913 -0.0517 -0.2239 -0.2083
   69MEL    C06 1027   0.784   1.083   0.882  0.1856 -0.4869 -0.4080
   69MEL    N07 1028   0.764   0.974   0.948  0.3109 -0.1130  0.0082
   69MEL    N08 1029   0.877   1.074   0.793 -0.3551 -0.2498  0.1568
   69MEL    H09 1030   1.034   1.266   0.593 -0.9401  1.7019  1.8746
   69MEL    H0A 1031   1.050   1.092   0.624 -0.8546 -1.4742  1.7452
   69MEL    H0B 1032   0.675   1.489   0.801  2.5205 -1.8945  1.0209
   69MEL    H0C 1033   0.583   1.382   0.912  2.4644 -1.0269 -0.1515
   69MEL    H0D 1034   0.825   0.894   0.928 -0.9119 -1.0867 -2.7087
   69MEL    H0E 1035   0.694   0.975   1.017  1.4794  1.0226 -3.2573
   70MEL    N00 1036   0.468   0.244   0.721  1.0461  0.3126  0.0536
   70MEL    C01 1037   0.558   0.239   0.630 -0.1467  0.4598 -0.4871
   70MEL    N02 1038   0.621   0.125   0.615  0.0569  0.0951 -0.5195
   70MEL    C03 1039   0.721   0.128   0.525 -0.5317  0.1830  0.1767
   70MEL    N04 1040   0.802   0.023   0.506 -0.1218 -0.0425  0.0575
   70MEL    N05 1041   0.754   0.229   0.441 -0.0672  0.3791 -0.1985
   70MEL    C06 1042   0.684   0.338   0.475  0.5291  0.2289  0.2132
   70MEL    N07 1043   0.720   0.446   0.403  0.6050  0.5776 -0.0112
   70MEL    N08 1044   0.588   0.354   0.563  0.6344  0.3046 -0.3146
   70MEL    H09 1045   0.441   0.163   0.779  0.9472  0.0907  2.1601
   70MEL    H0A 1046   0.412   0.332   0.727 -0.9621 -0.2004  3.8263
   70MEL    H0B 1047   0.787  -0.056   0.572  0.5299  0.2145  0.9820
   70MEL    H0C 1048   0.885   0.020   0.444 -0.3470 -2.1886  0.0028
   70MEL    H0D 1049   0.678   0.538   0.405  0.7313 -0.8516  0.5104
   70MEL    H0E 1050   0.793   0.440   0.329 -1.0260 -1.4459  0.9327
   71MEL    N00 1051   0.976   1.537   0.714 -0.1281 -0.2758 -0.4728
   71MEL    C01 1052   1.065   1.544   0.610 -0.5377  0.6326  0.2545
   71MEL    N02 1053   1.134   1.661   0.598 -0.0880  0.2360  0.3370
   71MEL    C03 1054   1.233   1.661   0.508  0.4098 -0.2398 -0.5023
   71MEL    N04 1055   1.294   1.780   0.490  0.2780  0.0030  0.1575
   71MEL    N05 1056   1.275   1.554   0.434 -0.7273 -0.0859  0.5559
   71MEL    C06 1057   1.201   1.444   0.453  0.7315  0.3445 -0.1649
   71MEL    N07 1058   1.227   1.341   0.370  0.3623  0.1548 -0.1024
   71MEL    N08 1059   1.092   1.433   0.529 -0.0713  0.5821  0.4616
   71MEL    H09 1060   0.951   1.624   0.771 -2.4267 -1.6483 -3.0267
   71MEL    H0A 1061   0.920   1.451   0.723  0.4163  0.1243 -2.9437
   71MEL    H0B 1062   1.262   1.865   0.538 -0.6614  1.0780 -0.1684
   71MEL    H0C 1063   1.377   1.775   0.440 -1.2020 -1.9264  0.3529
   71MEL    H0D 1064   1.160   1.267   0.372 -0.3575  1.2803 -0.8505
   71MEL    H0E 1065   1.308   1.341   0.312 -2.0582  0.5073  1.3237
   72MEL    N00 1066   1.491   0.608   0.617 -0.1213  0.3885 -0.4818
   72MEL    C01 1067   1.398   0.600   0.707  0.2637  0.4908  0.4103
   72MEL    N02 1068   1.336   0.485   0.725 -0.3511 -0.4450  0.5215
   72MEL    C03 1069   1.244   0.475   0.821 -0.0935 -0.2235  0.2683
   72MEL    N04 1070   1.172   0.366   0.830  0.2571 -0.1217  0.8267
   72MEL    N05 1071   1.225   0.574   0.912 -0.0662  0.4027  0.2981
   72MEL    C06 1072   1.282   0.690   0.881 -0.7410  0.0109 -0.1267
   72MEL    N07 1073   1.244   0.791   0.952  0.4033  0.0342  0.8438
   72MEL    N08 1074   1.377   0.710   0.783 -1.0191  0.2311 -0.6655
   72MEL    H09 1075   1.539   0.530   0.568 -1.4431 -0.6200  0.2830
   72MEL    H0A 1076   1.540   0.696   0.620  1.0418 -0.0150  0.3966
   72MEL    H0B 1077   1.173   0.297   0.752 -0.2443 -0.6813 -0.5014
   72MEL    H0C 1078   1.084   0.374   0.891  3.2789 -1.8840  2.2750
   72MEL    H0D 1079   1.310   0.867   0.931 -1.4280 -2.2505  0.8169
   72MEL    H0E 1080   1.174   0.786   1.026 -1.9220  1.4938 -1.7938
   73MEL    N00 1081   0.710   1.210   1.299  0.2064 -0.0496  0.5404
   73MEL    C01 1082   0.616   1.214   1.395  0.2201  0.8570 -0.0596
   73MEL    N02 1083   0.551   1.326   1.414  0.3568 -0.0091 -0.1168
   73MEL    C03 1084   0.447   1.316   1.501 -0.1717  0.7990  0.1962
   73MEL    N04 1085   0.379   1.425   1.528 -0.5725 -0.2231 -0.5027
   73MEL    N05 1086   0.423   1.209   1.580  0.0504  0.5818 -0.3541
   73MEL    C06 1087   0.510   1.110   1.563 -1.0319  0.3156 -0.1706
   73MEL    N07 1088   0.489   1.001   1.636  0.1590  0.5482  0.3042
   73MEL    N08 1089   0.604   1.101   1.468  0.4488 -1.0702 -0.5699
   73MEL    H09 1090   0.739   1.300   1.257 -0.7713  1.5378  1.5116
   73MEL    H0A 1091   0.767   1.126   1.275  0.7569 -1.6412  0.4012
   73MEL    H0B 1092   0.402   1.495   1.452  2.1135  0.1322 -0.6290
   73MEL    H0C 1093   0.289   1.431   1.580 -0.1890 -0.6760  3.0641
   73MEL    H0D 1094   0.545   0.917   1.622  1.0162  0.8588  1.1970
   73MEL    H0E 1095   0.415   1.001   1.708  0.4115 -1.5472  0.9783
   74MEL    N00 1096   0.190   0.252   1.371 -0.0847 -0.2361  0.2044
   74MEL    C01 1097   0.296   0.250   1.291 -1.0076 -0.5052 -0.1085
   74MEL    N02 1098   0.366   0.136   1.283  0.2965  0.8361  0.3011
   74MEL    C03 1099   0.469   0.136   1.193  0.0606  0.1291  0.3175
   74MEL    N04 1100   0.525   0.016   1.179 -0.2044  0.4366 -0.0113
   74MEL    N05 1101   0.503   0.233   1.112  0.2752 -0.3260  0.2341
   74MEL    C06 1102   0.421   0.343   1.120  0.1805  0.3460  0.2978
   74MEL    N07 1103   0.453   0.446   1.044 -0.0824 -0.2860 -0.0384
   74MEL    N08 1104   0.316   0.358   1.207 -0.2631 -0.1507  0.0927
   74MEL    H09 1105   0.182   0.162   1.420  0.9679  3.4561 -0.4959
   74MEL    H0A 1106   0.133   0.339   1.394 -1.6516 -0.5777  2.2729
   74MEL    H0B 1107   0.501  -0.046   1.254 -0.9052  1.3774 -1.5381
   74MEL    H0C 1108   0.619   0.004   1.132  0.7232  1.2888  1.2750
   74MEL    H0D 1109   0.390   0.526   1.042 -1.5467  2.5826  2.0214
   74MEL    H0E 1110   0.530   0.454   0.968 -2.3012  0.2495 -0.6395
   75MEL    N00 1111   0.697   1.563   1.370  0.1860 -0.2729 -0.6958
   75MEL    C01 1112   0.793   1.568   1.276  0.9644 -0.1607 -0.1450
   75MEL    N02 1113   0.853   1.685   1.277  0.0192 -0.3616  0.2346
   75MEL    C03 1114   0.962   1.680   1.197  0.2688 -0.0922  0.0213
   75MEL    N04 1115   1.035   1.790   1.192 -0.5791 -0.3093  0.5410
   75MEL    N05 1116   1.005   1.583   1.120 -0.1031 -0.2030 -0.0308
   75MEL    C06 1117   0.920   1.476   1.116 -0.3529  0.7428 -0.3073
   75MEL    N07 1118   0.953   1.371   1.047 -0.6201  0.1673 -0.3266
   75MEL    N08 1119   0.811   1.461   1.195  0.1121 -0.6828 -0.7882
   75MEL    H09 1120   0.666   1.645   1.419  0.2211  1.0617  0.1248
   75MEL    H0A 1121   0.645   1.473   1.388 -1.3300  1.0596  0.6418
   75MEL    H0B 1122   1.015   1.866   1.251  0.3339 -1.3643  0.5361
   75MEL    H0C 1123   1.131   1.779   1.152  3.1209 -1.4761  0.7623
   75MEL    H0D 1124   0.897   1.284   1.047  1.2557  0.4986  2.7316
   75MEL    H0E 1125   1.037   1.366   0.988  0.1159  1.5905  2.0029
   76MEL    N00 1126   1.205   0.626   1.290  0.4325 -0.8416 -0.3727
   76MEL    C01 1127   1.110   0.609   1.382  0.3652  0.5060  0.0461
   76MEL    N02 1128   1.058   0.486   1.406 -0.5210 -0.2714  1.0314
   76MEL    C03 1129   0.952   0.493   1.493 -0.4120  0.1181  0.4234
   76MEL    N04 1130   0.891   0.372   1.511  0.1729  0.4836  0.3744
   76MEL    N05 1131   0.907   0.599   1.568 -0.4326 -0.0669 -0.2081
   76MEL    C06 1132   0.979   0.708   1.540  0.1749 -0.0087 -0.5833
   76MEL    N07 1133   0.953   0.818   1.616  0.5689  0.6643  0.2908
   76MEL    N08 1134   1.092   0.721   1.458  0.1326  0.8735 -0.0919
   76MEL    H09 1135   1.247   0.537   1.252 -0.8765  0.2293 -1.1392
   76MEL    H0A 1136   1.252   0.719   1.276  0.4106 -2.7514 -0.9096
   76MEL    H0B 1137   0.895   0.301   1.432 -3.1275 -2.8398 -2.1441
   76MEL    H0C 1138   0.799   0.381   1.558  0.0880  0.9820 -1.2483
   76MEL    H0D 1139   1.004   0.903   1.610  0.7676 -1.1330 -0.9236
   76MEL    H0E 1140   0.876   0.824   1.682  2.0860 -0.9912 -1.2730
   77MEL    N00 1141   0.435   1.210   1.980  0.1467  0.9673  0.0529
   77MEL    C01 1142   0.336   1.210   2.074 -0.1022 -0.7929 -0.1308
   77MEL    N02 1143   0.274   1.324   2.094 -0.9348  0.2457 -0.4091
   77MEL    C03 1144   0.183   1.328   2.190 -0.1122 -0.3334  0.5752
   77MEL    N04 1145   0.122   1.450   2.203  0.1828  0.0100 -0.2273
   77MEL    N05 1146   0.149   1.224   2.267  0.0093 -0.4314  0.2783
   77MEL    C06 1147   0.216   1.107   2.236 -0.1913  0.2581 -0.1873
   77MEL    N07 1148   0.181   1.001   2.305 -0.4231  0.4221  0.0772
   77MEL    N08 1149   0.310   1.097   2.141 -0.2569 -0.3271 -0.0882
   77MEL    H09 1150   0.471   1.297   1.941 -0.8077  0.4942  0.9468
   77MEL    H0A 1151   0.480   1.115   1.973 -1.1062  1.2556  0.6806
   77MEL    H0B 1152   0.128   1.521   2.129  0.0534 -1.6733 -0.1449
   77MEL    H0C 1153   0.040   1.456   2.265  0.5298  0.6406  2.1722
   77MEL    H0D 1154   0.245   0.922   2.300 -1.0528  2.5660 -2.0441
   77MEL    H0E 1155   0.098   0.991   2.371  1.4278 -2.3063 -0.0578
   78MEL    N00 1156   2.939   0.266   2.049  0.7067 -0.5147  0.0700
   78MEL    C01 1157   3.044   0.255   1.962  0.7598  0.1076 -0.1043
   78MEL    N02 1158   3.117   0.140   1.957 -0.4946  0.1276  0.7477
   78MEL    C03 1159   3.220   0.143   1.870  0.2520  0.5810 -0.0913
   78MEL    N04 1160   3.290   0.032   1.863 -0.0961  0.6075 -0.2855
   78MEL    N05 1161   3.260   0.247   1.799  0.2120 -0.8543  0.7519
   78MEL    C06 1162   3.179   0.356   1.810 -0.2308  0.2755  0.1357
   78MEL    N07 1163   3.198   0.460   1.730  0.2051  0.0685 -0.5783
   78MEL    N08 1164   3.067   0.363   1.885 -0.3775  0.0825  0.2870
   78MEL    H09 1165   2.908   0.183   2.101 -0.5749  0.9240  3.1651
   78MEL    H0A 1166   2.880   0.355   2.059 -2.1627  0.3206  0.2067
   78MEL    H0B 1167   3.273  -0.036   1.929 -0.5711  0.6178 -0.6484
   78MEL    H0C 1168   3.379   0.041   1.815 -0.4482 -1.1125 -0.2825
   78MEL    H0D 1169   3.142   0.539   1.712  3.1610 -0.2556 -0.9806
   78MEL    H0E 1170   3.290   0.444   1.679  2.6662  1.2856 -1.1395
   79MEL    N00 1171   0.440   1.561   2.079  0.2286 -0.2291 -0.2220
   79MEL    C01 1172   0.537   1.569   1.980 -0.9248  0.4493 -0.1920
   79MEL    N02 1173   0.596   1.690   1.957  0.7303  0.7478  0.1967
   79MEL    C03 1174   0.690   1.685   1.858 -0.0198  0.6235 -0.6346
   79MEL    N04 1175   0.748   1.802   1.835 -0.8904  0.7309  0.3909
   79MEL    N05 1176   0.717   1.582   1.778  0.3321 -0.0343 -0.1931
   79MEL    C06 1177   0.643   1.467   1.804 -0.3860 -0.8983  0.5104
   79MEL    N07 1178   0.658   1.359   1.726  0.2931  0.0327 -0.3047
   79MEL    N08 1179   0.558   1.457   1.911 -0.1425 -0.4941 -0.2789
   79MEL    H09 1180   0.418   1.641   2.136 -1.1362  1.2264 -0.5650
   79MEL    H0A 1181   0.396   1.473   2.104  0.9387 -0.7949 -1.5838
   79MEL    H0B 1182   0.741   1.857   1.921  1.8361  0.7689  1.4955
   79MEL    H0C 1183   0.837   1.791   1.792  1.6932 -0.3252 -1.7158
   79MEL    H0D 1184   0.614   1.272   1.756 -0.8887  0.1496  2.1386
   79MEL    H0E 1185   0.736   1.352   1.660 -0.4183 -1.0292  0.1018
   80MEL    N00 1186   0.931   0.619   1.967 -0.1653  0.3227 -0.0790
   80MEL    C01 1187   0.833   0.608   2.064  0.2175 -0.1550 -0.7316
   80MEL    N02 1188   0.773   0.490   2.074  0.2516 -0.1187 -0.7346
   80MEL    C03 1189   0.680   0.483   2.172 -0.3260  0.4885 -0.5854
   80MEL    N04 1190   0.609   0.375   2.197  0.6764 -0.0171  0.7231
   80MEL    N05 1191   0.642   0.581   2.256  0.3586 -0.9925  0.7845
   80MEL    C06 1192   0.708   0.698   2.227 -0.3366 -0.5599  0.5090
   80MEL    N07 1193   0.679   0.801   2.299 -0.2336 -0.3259 -0.3802
   80MEL    N08 1194   0.805   0.717   2.147  0.6765 -0.1401  0.4187
   80MEL    H09 1195   0.987   0.550   1.917  0.1373  3.5248 -1.4688
   80MEL    H0A 1196   0.958   0.720   1.943 -2.6723 -0.4112 -1.1642
   80MEL    H0B 1197   0.616   0.305   2.122  0.9477 -0.6633 -0.5075
   80MEL    H0C 1198   0.532   0.379   2.263  2.2174  1.4499  1.3293
   80MEL    H0D 1199   0.736   0.882   2.301 -2.7154  0.4772  3.3898
   80MEL    H0E 1200   0.597   0.792   2.355  3.1443  0.3534 -2.2735
   81MEL    N00 1201   0.167   1.916   2.641 -0.3837 -0.2496 -1.1050
   81MEL    C01 1202   0.074   1.912   2.736  0.5190  0.1360  0.1860
   81MEL    N02 1203   0.003   2.024   2.751 -0.4518  0.3167 -0.5947
   81MEL    C03 1204  -0.094   2.024   2.839  0.0146  0.8076 -0.0185
   81MEL    N04 1205  -0.167   2.136   2.831 -0.4821  0.1084 -0.3864
   81MEL    N05 1206  -0.127   1.915   2.917 -0.2845 -0.0299  0.0351
   81MEL    C06 1207  -0.057   1.800   2.894 -0.0875 -0.5978  0.2222
   81MEL    N07 1208  -0.081   1.688   2.967  0.1757  0.2531 -0.0290
   81MEL    N08 1209   0.049   1.793   2.802 -0.6133  0.4808 -0.1647
   81MEL    H09 1210   0.193   2.014   2.604  1.4140  1.2767  0.4224
   81MEL    H0A 1211   0.209   1.825   2.626 -0.9568  3.6489  0.0668
   81MEL    H0B 1212  -0.139   2.204   2.756 -0.3118 -1.4449 -0.7969
   81MEL    H0C 1213  -0.259   2.146   2.861 -0.5701 -0.0117  1.1555
   81MEL    H0D 1214  -0.032   1.604   2.942  0.1383 -2.8660 -2.4174
   81MEL    H0E 1215  -0.152   1.678   3.038  0.1745  0.2193 -0.9591
   82MEL    N00 1216   0.733   0.982   0.024 -0.6654 -0.1407 -0.5133
   82MEL    C01 1217   0.836   0.975  -0.056 -0.2186 -0.1186 -0.2896
   82MEL    N02 1218   0.900   0.850  -0.065 -0.4071 -0.0464  0.4496
   82MEL    C03 1219   1.002   0.851  -0.150 -0.3395  0.2202 -0.2163
   82MEL    N04 1220   1.079   0.743  -0.157 -0.3264 -0.0762 -0.1719
   82MEL    N05 1221   1.046   0.955  -0.227 -0.2311 -0.0890  0.0121
   82MEL    C06 1222   0.967   1.065  -0.215 -0.5113  0.2668  0.1367
   82MEL    N07 1223   1.011   1.170  -0.290  0.0002  0.0421  0.6193
   82MEL    N08 1224   0.849   1.079  -0.145 -0.3483  0.0345  0.5716
   82MEL    H09 1225   0.711   0.903   0.085  1.1960 -1.3133  2.9765
   82MEL    H0A 1226   0.687   1.073   0.038  1.6417  1.4340 -0.0878
   82MEL    H0B 1227   1.057   0.663  -0.099  0.9310 -0.1785 -0.3194
   82MEL    H0C 1228   1.168   0.744  -0.199  0.2191 -0.0523  0.1364
   82MEL    H0D 1229   0.955   1.257  -0.283  0.8616  1.4027  0.8410
   82MEL    H0E 1230   1.100   1.171  -0.336 -2.7160 -0.9883  0.9903
   83MEL    N00 1231   1.261   0.104   0.034  0.0689  0.1703 -0.4568
   83MEL    C01 1232   1.352   0.115  -0.062  0.1625  0.2496 -0.1081
   83MEL    N02 1233   1.402   0.237  -0.083 -0.3542 -0.2481  0.5083
   83MEL    C03 1234   1.506   0.242  -0.173 -0.7105 -0.0354  0.3765
   83MEL    N04 1235   1.581   0.350  -0.172  0.0452 -0.2003 -0.7182
   83MEL    N05 1236   1.540   0.142  -0.252 -0.6827 -0.0425  0.3078
   83MEL    C06 1237   1.480   0.027  -0.223  0.7081  0.6181  0.3849
   83MEL    N07 1238   1.518  -0.085  -0.289 -0.6628 -0.2079  0.1817
   83MEL    N08 1239   1.384   0.005  -0.131  0.1536 -0.0981 -0.5309
   83MEL    H09 1240   1.228   0.176   0.089 -0.2203 -0.9162 -1.3995
   83MEL    H0A 1241   1.213   0.013   0.050 -1.3096 -0.2586  1.2585
   83MEL    H0B 1242   1.575   0.423  -0.095  0.0935 -2.0761  0.1214
   83MEL    H0C 1243   1.671   0.354  -0.221  1.6133 -1.9691  0.8121
   83MEL    H0D 1244   1.462  -0.172  -0.271  0.1281  1.0369  2.7052
   83MEL    H0E 1245   1.599  -0.081  -0.347 -0.5213  0.4277  0.3715
   84MEL    N00 1246   0.663   1.315   2.656 -0.0422 -0.8660 -0.4441
   84MEL    C01 1247   0.571   1.307   2.750 -0.1487 -0.4373  0.0134
   84MEL    N02 1248   0.516   1.188   2.777 -0.2925 -0.2968  0.3614
   84MEL    C03 1249   0.417   1.191   2.872 -0.6635 -0.5352  0.3985
   84MEL    N04 1250   0.350   1.079   2.886  0.3323 -0.4592  0.6196
   84MEL    N05 1251   0.370   1.296   2.934 -0.5146 -0.1851  0.6876
   84MEL    C06 1252   0.440   1.411   2.903  0.4994 -0.3513  0.2347
   84MEL    N07 1253   0.412   1.517   2.968  0.2193 -0.2818 -0.1985
   84MEL    N08 1254   0.537   1.421   2.810 -0.0652  0.4890 -0.5138
   84MEL    H09 1255   0.695   1.226   2.627  1.5276 -0.4552 -0.5152
   84MEL    H0A 1256   0.708   1.399   2.627  2.0577  2.2735 -0.3692
   84MEL    H0B 1257   0.379   0.995   2.841  0.1093 -0.3902 -1.4878
   84MEL    H0C 1258   0.262   1.077   2.928  2.5415 -2.4133  0.6969
   84MEL    H0D 1259   0.466   1.604   2.947  0.0981  4.7920  1.0594
   84MEL    H0E 1260   0.332   1.520   3.036 -2.3005  0.1499  1.4662
   85MEL    N00 1261   0.993   1.903   0.634 -0.0210  0.1840  0.0931
   85MEL    C01 1262   0.905   1.905   0.727  0.0199  0.6557 -0.0680
   85MEL    N02 1263   0.831   2.020   0.732 -0.2825 -0.1091 -0.0792
   85MEL    C03 1264   0.738   2.014   0.829 -0.0031 -0.1603  0.1247
   85MEL    N04 1265   0.678   2.131   0.847  0.9278 -0.4083  0.5330
   85MEL    N05 1266   0.697   1.905   0.904 -0.1689  0.0499 -0.2439
   85MEL    C06 1267   0.771   1.793   0.878  0.0931  0.3235 -0.2185
   85MEL    N07 1268   0.740   1.679   0.955  0.4026  0.0048 -0.7386
   85MEL    N08 1269   0.881   1.788   0.799  0.3455 -0.2743  0.2582
   85MEL    H09 1270   1.023   1.994   0.596 -0.3365 -2.5632  1.2659
   85MEL    H0A 1271   1.040   1.812   0.615 -1.4529  0.8797 -0.2662
   85MEL    H0B 1272   0.685   2.207   0.780 -0.3270 -0.2048  2.0954
   85MEL    H0C 1273   0.599   2.136   0.909 -1.3315  3.1851  0.8531
   85MEL    H0D 1274   0.805   1.594   0.958 -1.9317 -3.0950 -3.3127
   85MEL    H0E 1275   0.665   1.689   1.026  1.0424  0.3832  1.3241
   86MEL    N00 1276   0.501   0.962   0.717 -0.1591  0.3832 -0.4809
   86MEL    C01 1277   0.582   0.949   0.617 -0.1712 -0.2048  0.5472
   86MEL    N02 1278   0.650   0.833   0.606  0.5744 -0.2483  0.1104
   86MEL    C03 1279   0.733   0.831   0.499  0.3342  0.7461  0.3404
   86MEL    N04 1280   0.808   0.719   0.494  0.1530 -0.1322  0.0523
   86MEL    N05 1281   0.754   0.930   0.407  0.2793  0.4738  0.2927
   86MEL    C06 1282   0.679   1.037   0.428 -0.0647  0.2291 -0.6550
   86MEL    N07 1283   0.697   1.130   0.340 -0.5510  0.2549 -0.7758
   86MEL    N08 1284   0.589   1.053   0.529 -0.1716  0.1683  0.4749
   86MEL    H09 1285   0.461   0.885   0.773 -1.2507 -1.0364 -0.4114
   86MEL    H0A 1286   0.460   1.054   0.727  3.0193  1.6877 -4.3217
   86MEL    H0B 1287   0.806   0.659   0.572 -1.3814  2.8661  0.0764
   86MEL    H0C 1288   0.887   0.708   0.425  1.1562  0.8620 -0.2523
   86MEL    H0D 1289   0.632   1.209   0.344 -2.0846 -0.8479  1.5216
   86MEL    H0E 1290   0.771   1.131   0.269 -0.3710 -0.2705  1.0851
   87MEL    N00 1291   0.998   0.075   0.736 -1.1635 -0.0322 -0.9133
   87MEL    C01 1292   1.081   0.095   0.630  0.0314 -0.3875 -0.1430
   87MEL    N02 1293   1.137   0.212   0.616 -0.4020  0.0543  0.6033
   87MEL    C03 1294   1.226   0.219   0.515  0.2704 -0.1001 -0.1043
   87MEL    N04 1295   1.287   0.337   0.493  0.2085  0.5814  0.3753
   87MEL    N05 1296   1.265   0.116   0.438 -0.3905  0.4979  0.4673
   87MEL    C06 1297   1.195   0.002   0.457  0.8057  0.2812 -0.0198
   87MEL    N07 1298   1.223  -0.101   0.383 -0.0876 -0.2268 -0.2096
   87MEL    N08 1299   1.101  -0.016   0.559 -0.4211  0.1507 -1.0403
   87MEL    H09 1300   0.960   0.154   0.783 -0.1347  1.2241 -0.7540
   87MEL    H0A 1301   0.951  -0.015   0.734  0.1613  1.0828 -0.6672
   87MEL    H0B 1302   1.288   0.408   0.570 -0.8270 -0.5984 -1.9171
   87MEL    H0C 1303   1.359   0.349   0.417 -1.5105 -1.3072 -0.6825
   87MEL    H0D 1304   1.169  -0.183   0.376  0.4904 -0.5361 -1.4858
   87MEL    H0E 1305   1.309  -0.084   0.327  0.4118  0.5255  1.5042
   88MEL    N00 1306   1.508   1.346   0.633 -0.3046 -0.9409 -0.1378
   88MEL    C01 1307   1.399   1.339   0.713 -0.1583 -0.3049 -0.3103
   88MEL    N02 1308   1.344   1.218   0.725  0.6919 -0.1244 -0.8013
   88MEL    C03 1309   1.247   1.211   0.820  0.4055 -0.6537  0.1599
   88MEL    N04 1310   1.195   1.090   0.834  0.4311  0.5327  0.2280
   88MEL    N05 1311   1.213   1.307   0.909 -0.2179 -0.0681  0.6044
   88MEL    C06 1312   1.273   1.427   0.883 -0.2269  0.4663  0.6981
   88MEL    N07 1313   1.251   1.531   0.968 -0.2808 -0.2496 -0.7379
   88MEL    N08 1314   1.378   1.443   0.794  0.8031 -0.6883  0.0336
   88MEL    H09 1315   1.534   1.261   0.582  0.2656 -0.6098  0.8150
   88MEL    H0A 1316   1.559   1.437   0.619 -2.8095  0.6787 -0.8258
   88MEL    H0B 1317   1.199   1.021   0.758 -0.9595 -0.9200  3.2459
   88MEL    H0C 1318   1.116   1.092   0.904  1.6393 -2.1931 -1.0301
   88MEL    H0D 1319   1.295   1.624   0.945 -0.2441 -1.4054 -3.9821
   88MEL    H0E 1320   1.179   1.535   1.043 -0.4735  1.4777 -0.8659
   89MEL    N00 1321   0.707   1.934   1.334  0.7282 -0.2158 -0.3161
   89MEL    C01 1322   0.610   1.936   1.429  0.0691 -1.3797 -1.3125
   89MEL    N02 1323   0.540   2.054   1.436  0.5057  0.9026 -0.4733
   89MEL    C03 1324   0.447   2.046   1.528 -0.3523 -0.3107  0.0623
   89MEL    N04 1325   0.380   2.164   1.545  0.1782  0.2473  0.5746
   89MEL    N05 1326   0.405   1.937   1.597 -0.0155 -0.0333  0.8094
   89MEL    C06 1327   0.484   1.827   1.581 -0.0843  0.8892  0.3134
   89MEL    N07 1328   0.459   1.716   1.647  0.7749  0.0096 -0.1328
   89MEL    N08 1329   0.588   1.818   1.495  0.2553  0.0955 -0.1741
   89MEL    H09 1330   0.743   2.014   1.282 -0.2318 -0.6698  0.8317
   89MEL    H0A 1331   0.748   1.844   1.320 -0.0435 -0.4271  0.2347
   89MEL    H0B 1332   0.398   2.239   1.482  0.0879 -1.1049 -1.8131
   89MEL    H0C 1333   0.302   2.168   1.609  1.9369 -0.3019 -0.8039
   89MEL    H0D 1334   0.535   1.643   1.645  0.2573 -1.0517  2.4513
   89MEL    H0E 1335   0.370   1.703   1.701 -0.4712  1.2922  0.6072
   90MEL    N00 1336   0.204   0.955   1.375 -0.1006  0.0470  0.3013
   90MEL    C01 1337   0.305   0.958   1.286 -0.2563 -0.1080  0.1771
   90MEL    N02 1338   0.362   0.839   1.264  0.4205  0.6675 -0.0810
   90MEL    C03 1339   0.455   0.831   1.170  0.7935  0.0478 -0.4083
   90MEL    N04 1340   0.522   0.718   1.158 -0.3540  0.0742 -0.2155
   90MEL    N05 1341   0.496   0.937   1.099  0.5545 -0.1680  0.0859
   90MEL    C06 1342   0.433   1.054   1.129  1.1980  0.6029  0.1749
   90MEL    N07 1343   0.464   1.161   1.063  0.5686  0.0199  0.6610
   90MEL    N08 1344   0.334   1.070   1.222 -0.3260 -0.4963 -0.3422
   90MEL    H09 1345   0.178   0.860   1.400 -1.5951 -0.9682 -0.0744
   90MEL    H0A 1346   0.154   1.039   1.415 -0.5117 -2.0243  1.3920
   90MEL    H0B 1347   0.511   0.637   1.214 -1.6859  1.6938 -1.7834
   90MEL    H0C 1348   0.611   0.718   1.102 -1.6878 -0.7510 -0.1990
   90MEL    H0D 1349   0.415   1.243   1.083  1.6407 -0.5375  1.2358
   90MEL    H0E 1350   0.551   1.157   1.009  1.7463  2.8916 -0.6636
   91MEL    N00 1351   0.712   0.124   1.382 -0.0005  0.0160  0.7636
   91MEL    C01 1352   0.810   0.125   1.289  0.0784 -0.5606 -0.1062
   91MEL    N02 1353   0.871   0.240   1.265  0.1005 -0.2179  0.1824
   91MEL    C03 1354   0.965   0.237   1.166 -0.1020  0.2551 -0.3851
   91MEL    N04 1355   1.032   0.348   1.153 -0.1349  0.0386 -0.4861
   91MEL    N05 1356   0.998   0.127   1.090  0.0516 -0.6403 -0.0312
   91MEL    C06 1357   0.923   0.024   1.115 -0.6191 -0.3722  0.1791
   91MEL    N07 1358   0.936  -0.086   1.039 -0.1942  0.4922 -0.0401
   91MEL    N08 1359   0.831   0.015   1.213  0.1371  0.5017  0.0772
   91MEL    H09 1360   0.679   0.218   1.419 -0.9177 -2.0926 -0.9370
   91MEL    H0A 1361   0.658   0.038   1.395 -1.1254 -1.6530 -1.2586
   91MEL    H0B 1362   1.020   0.425   1.216 -2.0379 -0.6628  2.6531
   91MEL    H0C 1363   1.123   0.348   1.100  0.5420  1.7192  0.1029
   91MEL    H0D 1364   0.870  -0.168   1.047  0.4632  0.3375 -1.0908
   91MEL    H0E 1365   1.012  -0.078   0.969 -0.6880 -2.9667  0.1340
   92MEL    N00 1366   1.205   1.348   1.321  0.4646  0.0660 -0.3986
   92MEL    C01 1367   1.120   1.343   1.423  0.7680 -0.0152  0.5292
   92MEL    N02 1368   1.058   1.225   1.432 -0.3434 -0.1674  0.0890
   92MEL    C03 1369   0.958   1.223   1.521 -0.5074  0.0655 -0.4637
   92MEL    N04 1370   0.888   1.109   1.537 -0.2231  0.7367 -0.0055
   92MEL    N05 1371   0.915   1.328   1.594 -0.2421  0.8882 -0.2555
   92MEL    C06 1372   0.980   1.442   1.566 -0.2575  0.2933 -0.3419
   92MEL    N07 1373   0.941   1.552   1.640 -0.3529  0.2182  0.4046
   92MEL    N08 1374   1.094   1.459   1.490 -0.1552  0.4669  0.5058
   92MEL    H09 1375   1.239   1.265   1.280 -0.3393  0.2692 -0.3521
   92MEL    H0A 1376   1.256   1.431   1.295  2.3156 -0.5844 -2.0065
   92MEL    H0B 1377   0.891   1.027   1.471 -2.9652  0.3906 -1.0060
   92MEL    H0C 1378   0.809   1.113   1.594  0.2722 -1.5880  0.6299
   92MEL    H0D 1379   0.985   1.644   1.618  2.5147 -0.2715  1.0791
   92MEL    H0E 1380   0.855   1.540   1.697 -2.5714  2.8482  0.7289
   93MEL    N00 1381   0.434   1.919   1.985 -0.2379 -0.0846  0.2234
   93MEL    C01 1382   0.349   1.922   2.080  0.7175 -0.2928 -0.3613
   93MEL    N02 1383   0.295   2.046   2.109  0.4099  0.4248 -0.3884
   93MEL    C03 1384   0.188   2.046   2.194  0.2628  0.3457  0.0182
   93MEL    N04 1385   0.114   2.156   2.201  0.0829 -0.3737 -0.4859
   93MEL    N05 1386   0.148   1.939   2.270  0.0920 -0.4632  0.3919
   93MEL    C06 1387   0.217   1.827   2.240 -0.3163 -1.1039  0.5774
   93MEL    N07 1388   0.182   1.719   2.307  0.2418  0.0170  0.3846
   93MEL    N08 1389   0.313   1.807   2.146 -0.3301  0.1270  0.4451
   93MEL    H09 1390   0.476   2.007   1.953 -0.7710 -1.1038 -0.1781
   93MEL    H0A 1391   0.486   1.832   1.966 -0.0511  0.4723  1.0166
   93MEL    H0B 1392   0.131   2.236   2.136 -0.0949 -3.1312 -2.9596
   93MEL    H0C 1393   0.024   2.151   2.249 -0.1027  1.7335  0.0132
   93MEL    H0D 1394   0.208   1.630   2.275 -3.0674 -2.5021  1.3206
   93MEL    H0E 1395   0.126   1.724   2.392  0.5166 -3.1635 -2.4426
   94MEL    N00 1396   2.960   0.959   2.058  0.6000  0.6885 -0.7281
   94MEL    C01 1397   3.055   0.963   1.963  0.1885  0.7881  0.9100
   94MEL    N02 1398   3.113   0.840   1.942 -0.4668 -0.0904  0.5362
   94MEL    C03 1399   3.216   0.840   1.852  0.3620  0.1597  0.2864
   94MEL    N04 1400   3.273   0.721   1.829  0.0623 -0.5112 -0.3601
   94MEL    N05 1401   3.257   0.946   1.781 -0.7110  0.4346  0.7289
   94MEL    C06 1402   3.191   1.064   1.809  0.1600 -0.5718 -0.0796
   94MEL    N07 1403   3.218   1.180   1.746 -0.3121  0.8807 -0.3032
   94MEL    N08 1404   3.078   1.073   1.887 -0.2141  0.0013 -0.0687
   94MEL    H09 1405   2.931   0.874   2.103 -1.6136  0.4678  1.0728
   94MEL    H0A 1406   2.896   1.042   2.067 -1.3937  1.2543  0.6424
   94MEL    H0B 1407   3.238   0.644   1.889 -0.2406  1.0458  0.2806
   94MEL    H0C 1408   3.350   0.721   1.774 -0.2613  0.8480 -2.0571
   94MEL    H0D 1409   3.152   1.251   1.768 -0.8735 -0.4340 -3.1730
   94MEL    H0E 1410   3.295   1.184   1.680 -1.9974 -1.4896 -2.0363
   95MEL    N00 1411   0.458   0.134   2.079  0.2485  0.2134 -0.7022
   95MEL    C01 1412   0.550   0.130   1.983  0.2157  0.4463  0.6729
   95MEL    N02 1413   0.593   0.248   1.947 -0.7152  0.4705 -0.0256
   95MEL    C03 1414   0.692   0.240   1.850 -0.2222  0.1938  0.2225
   95MEL    N04 1415   0.760   0.343   1.829 -0.3144 -0.2562 -0.1104
   95MEL    N05 1416   0.718   0.132   1.775  0.4013  0.1851 -0.2514
   95MEL    C06 1417   0.661   0.024   1.821  0.4109  0.0892 -0.5610
   95MEL    N07 1418   0.696  -0.093   1.763 -0.2423  0.2864 -0.5358
   95MEL    N08 1419   0.573   0.014   1.919 -0.5164  0.3232  0.0159
   95MEL    H09 1420   0.421   0.225   2.112 -2.4752 -1.4156 -0.0634
   95MEL    H0A 1421   0.406   0.048   2.103 -0.0811  1.0258 -3.0518
   95MEL    H0B 1422   0.742   0.418   1.899 -2.0766  3.0981  1.9819
   95MEL    H0C 1423   0.847   0.341   1.782 -0.4241  0.4711  1.0612
   95MEL    H0D 1424   0.665  -0.189   1.784 -0.3154 -2.0441  1.2623
   95MEL    H0E 1425   0.768  -0.092   1.689  1.5826 -0.7320 -0.3717
   96MEL    N00 1426   0.928   1.360   1.969 -0.1786  0.1066 -0.5913
   96MEL    C01 1427   0.822   1.342   2.056 -0.4988 -0.5320 -0.2074
   96MEL    N02 1428   0.779   1.216   2.070  0.4957 -0.0209 -0.2233
   96MEL    C03 1429   0.688   1.202   2.169  0.4059 -0.5257  0.5271
   96MEL    N04 1430   0.633   1.080   2.183 -1.1098 -0.3355 -0.1822
   96MEL    N05 1431   0.640   1.301   2.251  0.0608 -0.3698  0.1433
   96MEL    C06 1432   0.706   1.417   2.237 -0.3756  0.1026  0.6927
   96MEL    N07 1433   0.675   1.524   2.310 -0.3748  0.3244 -0.2030
   96MEL    N08 1434   0.803   1.442   2.142  0.1752  0.1421 -0.5954
   96MEL    H09 1435   0.962   1.281   1.915 -1.0039 -1.3410 -1.2382
   96MEL    H0A 1436   0.980   1.449   1.949 -0.3544  1.9551  0.4453
   96MEL    H0B 1437   0.643   1.008   2.111 -2.1734 -0.3978 -0.1361
   96MEL    H0C 1438   0.562   1.070   2.251  0.1433  2.7573  0.0525
   96MEL    H0D 1439   0.724   1.612   2.304 -1.2940  0.6895  0.3487
   96MEL    H0E 1440   0.600   1.516   2.375  0.8278 -1.1938  0.8971
   97MEL    N00 1441   1.153   0.489   2.653 -0.5253 -0.3119  0.3370
   97MEL    C01 1442   1.061   0.484   2.748 -0.0985  0.0140 -0.3591
   97MEL    N02 1443   1.006   0.602   2.768  0.2901 -0.1516 -0.3888
   97MEL    C03 1444   0.913   0.600   2.868  0.2668 -0.0557 -0.5698
   97MEL    N04 1445   0.839   0.711   2.878  0.5852  0.1826 -0.0940
   97MEL    N05 1446   0.881   0.492   2.939  1.0367  0.3232 -0.0845
   97MEL    C06 1447   0.941   0.381   2.905  0.3426  0.6436  0.5085
   97MEL    N07 1448   0.916   0.276   2.979  0.0415  0.2207  0.3756
   97MEL    N08 1449   1.039   0.367   2.812 -0.4497 -0.4206  0.2131
   97MEL    H09 1450   1.189   0.579   2.610  0.1525 -0.6901 -0.6186
   97MEL    H0A 1451   1.197   0.398   2.629 -2.6803  1.8750  1.3675
   97MEL    H0B 1452   0.867   0.792   2.816 -2.8184  0.5547 -1.6349
   97MEL    H0C 1453   0.750   0.710   2.926 -1.3000  1.1337 -0.1437
   97MEL    H0D 1454   0.971   0.198   2.970 -0.6444  0.8498  1.9921
   97MEL    H0E 1455   0.831   0.264   3.037  0.0727  2.4237 -1.7602
   98MEL    N00 1456   1.782   1.665   0.025  0.3774  0.1166 -0.4674
   98MEL    C01 1457   1.877   1.665  -0.069 -0.2995 -0.5590  0.2947
   98MEL    N02 1458   1.940   1.543  -0.094  0.4257 -0.1914  0.0857
   98MEL    C03 1459   2.044   1.556  -0.181 -0.2300 -0.6126  0.2431
   98MEL    N04 1460   2.118   1.441  -0.204 -1.0076 -0.9896  0.1942
   98MEL    N05 1461   2.078   1.669  -0.248 -0.3643  0.5929 -0.0929
   98MEL    C06 1462   1.997   1.778  -0.222  0.2674  0.0388 -0.5921
   98MEL    N07 1463   2.029   1.890  -0.280 -0.0276 -0.4895 -0.5059
   98MEL    N08 1464   1.888   1.781  -0.139 -0.3821 -0.0157 -0.2994
   98MEL    H09 1465   1.743   1.573   0.062  1.7447 -2.0708 -3.4864
   98MEL    H0A 1466   1.740   1.758   0.048  1.0996 -2.1704 -0.0755
   98MEL    H0B 1467   2.103   1.359  -0.149  2.7867 -0.2077  0.9907
   98MEL    H0C 1468   2.198   1.442  -0.273  3.6073  1.1111  0.5196
   98MEL    H0D 1469   1.974   1.976  -0.275 -1.1627 -1.3356 -0.2290
   98MEL    H0E 1470   2.118   1.897  -0.333 -1.6887  2.3990  2.0037
   99MEL    N00 1471   2.270   0.836   0.044  0.4791 -0.3257  0.5305
   99MEL    C01 1472   2.360   0.834  -0.059  0.1263  0.2102  0.7852
   99MEL    N02 1473   2.418   0.956  -0.077 -0.1451 -0.2223  0.3991
   99MEL    C03 1474   2.519   0.950  -0.170  0.1403 -0.5996  0.3328
   99MEL    N04 1475   2.581   1.069  -0.193 -0.3816 -0.0190 -0.9065
   99MEL    N05 1476   2.564   0.847  -0.243  0.8071  0.4223  0.5978
   99MEL    C06 1477   2.489   0.736  -0.228  0.7392  0.4104 -0.0776
   99MEL    N07 1478   2.526   0.637  -0.306  0.2814 -0.2124  0.4751
   99MEL    N08 1479   2.390   0.720  -0.135 -0.7263 -0.2830 -0.9987
   99MEL    H09 1480   2.236   0.926   0.082  1.3232  1.5209  0.9677
   99MEL    H0A 1481   2.212   0.751   0.046  3.2640  1.7876 -1.9990
   99MEL    H0B 1482   2.558   1.141  -0.121 -0.3775  2.3292 -0.4681
   99MEL    H0C 1483   2.657   1.079  -0.249 -0.2310 -1.3024 -0.7704
   99MEL    H0D 1484   2.474   0.552  -0.290 -0.9870  3.4484 -0.5035
   99MEL    H0E 1485   2.607   0.638  -0.372 -0.5720 -0.7264 -0.0018
  100MEL    N00 1486   1.667   2.075   2.633  0.1252 -0.0471 -0.3388
  100MEL    C01 1487   1.564   2.059   2.719  0.8664  0.1231 -0.3646
  100MEL    N02 1488   1.518   1.932   2.738 -0.1439 -0.4777  0.3075
  100MEL    C03 1489   1.419   1.923   2.836 -0.5899 -0.3167  0.5412
  100MEL    N04 1490   1.355   1.810   2.851 -0.5696 -0.0180  0.0079
  100MEL    N05 1491   1.376   2.034   2.912  0.2553 -0.4473  0.4661
  100MEL    C06 1492   1.436   2.151   2.880  0.0523 -0.2408 -0.1853
  100MEL    N07 1493   1.413   2.251   2.965  0.0431  0.2217  0.0428
  100MEL    N08 1494   1.533   2.173   2.786 -0.6440 -0.3623 -0.4587
  100MEL    H09 1495   1.709   1.985   2.589 -0.6565 -0.7396 -2.1292
  100MEL    H0A 1496   1.708   2.164   2.610 -0.5798 -1.6697 -1.5395
  100MEL    H0B 1497   1.379   1.730   2.785 -1.9366 -0.7421  0.4042
  100MEL    H0C 1498   1.269   1.821   2.899  2.1985 -0.9153 -1.1496
  100MEL    H0D 1499   1.459   2.336   2.938 -2.5545  1.2408 -2.3789
  100MEL    H0E 1500   1.328   2.250   3.027 -1.1555  1.2670 -1.6046
  101MEL    N00 1501   1.986   0.472   0.618  0.4745 -0.2753  0.8154
  101MEL    C01 1502   1.894   0.471   0.713 -0.2975 -0.3862 -0.3832
  101MEL    N02 1503   1.831   0.589   0.736 -0.0975 -0.3539  0.7024
  101MEL    C03 1504   1.731   0.587   0.832  0.2048 -0.3827  0.4987
  101MEL    N04 1505   1.661   0.702   0.849 -0.3257  1.0255 -0.4906
  101MEL    N05 1506   1.705   0.479   0.904  1.1484 -0.3072  0.4075
  101MEL    C06 1507   1.781   0.365   0.878 -0.1650 -0.6232  0.7594
  101MEL    N07 1508   1.747   0.257   0.948  0.4224  0.1453  0.0416
  101MEL    N08 1509   1.876   0.357   0.783 -0.4774 -0.8503 -0.4213
  101MEL    H09 1510   2.030   0.559   0.579  2.1790  1.4899 -1.0171
  101MEL    H0A 1511   2.044   0.388   0.600  2.5557  1.0166  3.0469
  101MEL    H0B 1512   1.682   0.776   0.779 -3.1385  1.4960 -0.4462
  101MEL    H0C 1513   1.580   0.713   0.909  1.2255 -0.4074  0.3000
  101MEL    H0D 1514   1.789   0.165   0.926  2.2211  2.2154 -1.2477
  101MEL    H0E 1515   1.661   0.268   1.008  1.0861  0.0456 -1.3572
  102MEL    N00 1516   1.482   1.690   0.710 -0.2509  0.5029 -0.1822
  102MEL    C01 1517   1.574   1.688   0.612 -1.2544  0.1094  0.8221
  102MEL    N02 1518   1.638   1.569   0.601  0.5281 -0.7390  0.3355
  102MEL    C03 1519   1.737   1.574   0.513  0.4550 -0.0037 -0.1195
  102MEL    N04 1520   1.800   1.456   0.488  0.0362  0.2446 -0.0868
  102MEL    N05 1521   1.776   1.681   0.438  0.1977 -0.4593  0.2537
  102MEL    C06 1522   1.703   1.791   0.458  0.0260 -0.4204  0.0971
  102MEL    N07 1523   1.746   1.899   0.396 -0.1815 -0.3479  0.2416
  102MEL    N08 1524   1.599   1.801   0.543 -0.7142  0.2513 -0.9475
  102MEL    H09 1525   1.471   1.597   0.757  1.2418 -1.3437  1.8797
  102MEL    H0A 1526   1.444   1.782   0.739 -1.3260 -0.0836  4.5649
  102MEL    H0B 1527   1.792   1.382   0.563  3.2803 -2.6064  0.3188
  102MEL    H0C 1528   1.890   1.449   0.436 -0.8416 -0.3532  1.7345
  102MEL    H0D 1529   1.704   1.982   0.433  0.1893 -0.4319 -5.1310
  102MEL    H0E 1530   1.834   1.913   0.342 -2.2768  1.2951 -0.1367
  103MEL    N00 1531   2.004   0.814   0.713  0.3289  0.1918  0.1262
  103MEL    C01 1532   2.090   0.822   0.614 -0.1424  0.2223 -0.0034
  103MEL    N02 1533   2.141   0.947   0.596 -0.1179  0.4944 -0.7941
  103MEL    C03 1534   2.244   0.949   0.502  0.4859  0.3767 -0.1857
  103MEL    N04 1535   2.303   1.061   0.486 -0.2776  0.4674  0.1138
  103MEL    N05 1536   2.277   0.853   0.422 -0.5710  0.0782 -0.3058
  103MEL    C06 1537   2.210   0.741   0.439  0.7068  0.1079  0.6696
  103MEL    N07 1538   2.243   0.641   0.354  0.6816  0.1654 -0.5605
  103MEL    N08 1539   2.112   0.715   0.534  0.4105  0.6015  0.3077
  103MEL    H09 1540   1.998   0.895   0.772 -1.0959  3.7661 -0.5959
  103MEL    H0A 1541   1.936   0.738   0.734  0.3619 -1.4010  0.7746
  103MEL    H0B 1542   2.274   1.141   0.544  0.5038 -2.1474 -0.6591
  103MEL    H0C 1543   2.394   1.057   0.441  1.3158 -0.0329 -0.6541
  103MEL    H0D 1544   2.191   0.556   0.376  1.9027 -0.5161  2.5876
  103MEL    H0E 1545   2.324   0.635   0.295 -0.7696  0.7890 -1.4613
  104MEL    N00 1546   2.474   2.047   0.645 -0.0670 -0.2141 -0.0826
  104MEL    C01 1547   2.383   2.044   0.736  0.6727  0.8171  0.3216
  104MEL    N02 1548   2.317   1.929   0.747  0.2714 -0.0215 -0.0655
  104MEL    C03 1549   2.229   1.922   0.847 -0.3527  0.1608 -0.0523
  104MEL    N04 1550   2.159   1.802   0.853  0.4587 -0.2183 -0.3824
  104MEL    N05 1551   2.195   2.021   0.931 -0.5698  0.3826 -0.6423
  104MEL    C06 1552   2.266   2.133   0.913 -0.6819  0.7877  0.0520
  104MEL    N07 1553   2.234   2.244   0.971 -0.3505 -0.4017  0.6448
  104MEL    N08 1554   2.365   2.147   0.821  0.4752 -0.6129  0.5330
  104MEL    H09 1555   2.498   1.952   0.602 -0.3540  4.7205  0.2240
  104MEL    H0A 1556   2.540   2.124   0.623 -3.4250  0.8807  0.7528
  104MEL    H0B 1557   2.174   1.732   0.779  1.5635 -3.0553  0.9003
  104MEL    H0C 1558   2.071   1.801   0.904  0.7961  1.0208  0.0509
  104MEL    H0D 1559   2.301   2.315   0.954  1.6331  0.4137  0.4886
  104MEL    H0E 1560   2.144   2.241   1.019 -1.4547 -0.0305 -0.5310
  105MEL    N00 1561   1.729   0.496   1.317  0.6929 -0.3927 -0.6836
  105MEL    C01 1562   1.631   0.491   1.405 -0.3899 -0.0644  0.9341
  105MEL    N02 1563   1.572   0.612   1.420  0.0581 -0.2381  0.9240
  105MEL    C03 1564   1.471   0.609   1.504 -0.7795 -0.0018  0.3652
  105MEL    N04 1565   1.400   0.720   1.510 -0.2239 -0.7658  0.6402
  105MEL    N05 1566   1.419   0.509   1.577 -0.3000 -0.8483 -0.3729
  105MEL    C06 1567   1.487   0.393   1.549 -0.2443 -0.6413  0.8122
  105MEL    N07 1568   1.444   0.281   1.598 -0.1149 -0.2608 -0.3652
  105MEL    N08 1569   1.589   0.375   1.465  0.1466  0.0908  1.3305
  105MEL    H09 1570   1.769   0.585   1.280 -3.0925 -0.4161 -2.2150
  105MEL    H0A 1571   1.778   0.406   1.303 -1.6996  0.6267  1.1523
  105MEL    H0B 1572   1.420   0.783   1.433  0.7910  1.1936  0.4441
  105MEL    H0C 1573   1.307   0.706   1.541 -1.4874 -1.9779 -1.4531
  105MEL    H0D 1574   1.486   0.195   1.560  0.2684  0.2540 -1.0178
  105MEL    H0E 1575   1.359   0.276   1.666 -0.7518  0.1352 -0.5034
  106MEL    N00 1576   1.213   1.685   1.403  0.1944  0.0459  0.0430
  106MEL    C01 1577   1.300   1.692   1.302 -0.0467  0.2822  0.2214
  106MEL    N02 1578   1.370   1.577   1.281  0.6063  0.2595  0.3149
  106MEL    C03 1579   1.460   1.582   1.182  0.2901 -0.6064 -0.3809
  106MEL    N04 1580   1.530   1.470   1.167  0.9083  0.0170 -0.8242
  106MEL    N05 1581   1.497   1.692   1.115 -0.4090 -0.3249  0.4318
  106MEL    C06 1582   1.430   1.808   1.144 -1.2402  0.2851 -0.8177
  106MEL    N07 1583   1.464   1.923   1.081 -0.5542  0.1374  0.1842
  106MEL    N08 1584   1.327   1.810   1.237  0.1486  0.7570  0.2446
  106MEL    H09 1585   1.183   1.597   1.453  3.4662  0.4410 -2.9960
  106MEL    H0A 1586   1.165   1.775   1.424  0.9061 -0.3269 -0.4773
  106MEL    H0B 1587   1.511   1.389   1.228  1.2965 -1.7667 -1.6829
  106MEL    H0C 1588   1.618   1.468   1.115  2.2314 -0.4707  1.3869
  106MEL    H0D 1589   1.398   1.999   1.091 -2.2675  3.8762 -1.1764
  106MEL    H0E 1590   1.538   1.918   1.005 -0.0790 -0.1075  0.9239
  107MEL    N00 1591   1.724   0.843   1.397  0.2058  0.5587 -0.2923
  107MEL    C01 1592   1.824   0.841   1.306 -0.6837 -0.2066  0.2190
  107MEL    N02 1593   1.887   0.958   1.288  0.3105  0.1127 -0.1142
  107MEL    C03 1594   1.980   0.954   1.187 -0.0472 -0.1826  0.3243
  107MEL    N04 1595   2.048   1.067   1.173  0.9361 -0.2987 -0.2172
  107MEL    N05 1596   2.006   0.853   1.100 -0.5996 -0.4559  0.1684
  107MEL    C06 1597   1.938   0.747   1.132  0.2742 -0.5391  0.4990
  107MEL    N07 1598   1.962   0.641   1.050  0.3232 -0.4894  0.1686
  107MEL    N08 1599   1.840   0.734   1.228 -0.3913 -0.5663 -1.0381
  107MEL    H09 1600   1.699   0.928   1.445  1.7198 -0.7152 -0.2380
  107MEL    H0A 1601   1.682   0.755   1.427 -0.3873 -0.4366  2.3846
  107MEL    H0B 1602   2.053   1.134   1.251  1.7852  1.8752 -0.1693
  107MEL    H0C 1603   2.134   1.049   1.121  1.7906  1.5313  0.2222
  107MEL    H0D 1604   1.900   0.562   1.069 -0.4625  1.9994  3.5635
  107MEL    H0E 1605   2.031   0.651   0.980  0.1603 -1.3306 -1.7464
  108MEL    N00 1606   2.226   2.037   1.302 -0.0606  0.8617  0.1142
  108MEL    C01 1607   2.131   2.032   1.402 -0.1528 -0.2683  0.6679
  108MEL    N02 1608   2.066   1.919   1.426  0.0510 -0.6949 -0.3545
  108MEL    C03 1609   1.960   1.932   1.501 -0.5383  0.4557  0.7963
  108MEL    N04 1610   1.887   1.822   1.518  0.1328  0.8259  0.1487
  108MEL    N05 1611   1.927   2.039   1.574 -0.9735 -0.6494 -0.1339
  108MEL    C06 1612   2.007   2.143   1.559  0.4780 -0.3326 -0.7909
  108MEL    N07 1613   1.988   2.252   1.637  0.5431  0.4432  0.0698
  108MEL    N08 1614   2.113   2.149   1.475  0.2039  0.1531  0.2714
  108MEL    H09 1615   2.257   1.948   1.263 -0.9809 -2.1317  0.7051
  108MEL    H0A 1616   2.268   2.126   1.278  0.5158 -1.1309 -0.8504
  108MEL    H0B 1617   1.899   1.738   1.465 -0.0094 -1.3322  1.0667
  108MEL    H0C 1618   1.794   1.841   1.554 -1.2628  1.4655 -0.8080
  108MEL    H0D 1619   2.048   2.334   1.648  2.3894 -0.4014  4.0147
  108MEL    H0E 1620   1.893   2.252   1.685 -0.3440 -3.7069  0.7731
  109MEL    N00 1621   1.404   0.467   1.949  0.4912 -0.3138  0.0225
  109MEL    C01 1622   1.313   0.479   2.043  0.1616 -0.2951 -0.5589
  109MEL    N02 1623   1.262   0.604   2.054  0.6096  0.0645  0.4916
  109MEL    C03 1624   1.174   0.613   2.159  0.1594 -0.2207  0.3701
  109MEL    N04 1625   1.119   0.729   2.178 -0.1138  0.8205 -0.0218
  109MEL    N05 1626   1.147   0.519   2.251 -0.1998  0.0094  0.5286
  109MEL    C06 1627   1.207   0.398   2.231  0.2949  0.5245 -0.3859
  109MEL    N07 1628   1.179   0.289   2.308 -0.1690  0.6010 -0.3174
  109MEL    N08 1629   1.286   0.375   2.125 -0.3184  0.7812  0.1861
  109MEL    H09 1630   1.450   0.551   1.906 -2.3907 -0.6532 -2.0143
  109MEL    H0A 1631   1.452   0.378   1.940 -0.0373 -0.2684  0.1217
  109MEL    H0B 1632   1.134   0.792   2.095  1.2008  3.0764  0.9924
  109MEL    H0C 1633   1.044   0.746   2.244 -1.9761  1.5467 -1.8156
  109MEL    H0D 1634   1.229   0.198   2.292 -1.9362 -0.3716 -0.2947
  109MEL    H0E 1635   1.117   0.306   2.387  0.5065 -1.6412 -3.1599
  110MEL    N00 1636   0.918   1.702   2.054  0.7589  0.3266  0.2897
  110MEL    C01 1637   1.027   1.703   1.970 -0.1575  0.3965  0.5027
  110MEL    N02 1638   1.095   1.584   1.954  0.6316 -0.5097  0.0361
  110MEL    C03 1639   1.193   1.591   1.861  0.8341 -0.1807 -0.6633
  110MEL    N04 1640   1.259   1.479   1.844  0.3180  0.4936  0.0480
  110MEL    N05 1641   1.223   1.689   1.780 -0.4916 -0.0919 -0.0602
  110MEL    C06 1642   1.146   1.797   1.800 -0.0835 -0.5457  0.3071
  110MEL    N07 1643   1.175   1.898   1.724 -0.3752  0.4059  0.1063
  110MEL    N08 1644   1.046   1.807   1.892  0.0713  0.7393  0.5395
  110MEL    H09 1645   0.891   1.609   2.090  1.3364  1.7280  2.5127
  110MEL    H0A 1646   0.863   1.782   2.085 -0.6343 -0.8078 -2.3754
  110MEL    H0B 1647   1.257   1.408   1.923  0.2556 -0.2946  0.8659
  110MEL    H0C 1648   1.339   1.477   1.783 -2.2858  1.0166 -0.8026
  110MEL    H0D 1649   1.145   1.992   1.745 -1.4940 -1.4080  4.8094
  110MEL    H0E 1650   1.250   1.887   1.652  1.8741 -1.5692 -2.9388
  111MEL    N00 1651   1.433   0.833   2.040  0.2705 -0.0952 -0.7629
  111MEL    C01 1652   1.539   0.825   1.954  0.1559  0.2443  0.8653
  111MEL    N02 1653   1.606   0.941   1.935  0.5506  0.8902 -0.1233
  111MEL    C03 1654   1.696   0.937   1.844 -0.1665  0.4972  0.6138
  111MEL    N04 1655   1.770   1.048   1.837  0.1968 -0.2243  0.0475
  111MEL    N05 1656   1.723   0.832   1.764 -0.4975  0.2389 -0.1588
  111MEL    C06 1657   1.652   0.721   1.787  0.6165 -0.5160 -0.4272
  111MEL    N07 1658   1.687   0.610   1.721 -0.4570 -0.2249 -0.0253
  111MEL    N08 1659   1.547   0.708   1.875  0.0940 -0.1958  0.3478
  111MEL    H09 1660   1.415   0.914   2.093  1.2990  1.2556  0.8386
  111MEL    H0A 1661   1.383   0.742   2.048  2.4974  0.2336 -4.2089
  111MEL    H0B 1662   1.756   1.119   1.911 -0.6361 -2.0545  1.2621
  111MEL    H0C 1663   1.854   1.052   1.783  1.7489  1.4998  0.1048
  111MEL    H0D 1664   1.620   0.537   1.734 -0.7342 -0.7707 -0.8877
  111MEL    H0E 1665   1.769   0.602   1.668 -1.3325 -0.8979 -3.4284
  112MEL    N00 1666   1.927   2.073   1.954  0.1522 -0.2793 -0.6071
  112MEL    C01 1667   1.829   2.067   2.044 -0.7896  0.2890  0.7280
  112MEL    N02 1668   1.776   1.944   2.061  0.7040  0.8710 -0.5285
  112MEL    C03 1669   1.694   1.937   2.169  0.1623 -0.4059  0.0638
  112MEL    N04 1670   1.648   1.816   2.190 -0.6723 -0.0485  0.1361
  112MEL    N05 1671   1.658   2.037   2.248 -0.3085  0.0214  0.1041
  112MEL    C06 1672   1.715   2.157   2.219 -0.4956  0.8292 -0.1516
  112MEL    N07 1673   1.696   2.259   2.298 -0.4035 -0.4069 -0.5780
  112MEL    N08 1674   1.810   2.172   2.120  0.1364 -0.0805  0.3869
  112MEL    H09 1675   1.957   1.988   1.911  0.7988  0.4097 -1.5433
  112MEL    H0A 1676   1.979   2.158   1.938 -0.5252 -0.5840 -0.3577
  112MEL    H0B 1677   1.662   1.744   2.117  1.2872 -3.7304  0.6473
  112MEL    H0C 1678   1.574   1.795   2.253 -2.3285 -2.0676  0.7820
  112MEL    H0D 1679   1.749   2.344   2.283 -0.5400 -1.0522  0.0304
  112MEL    H0E 1680   1.629   2.257   2.374  1.1460  0.0152 -1.0208
  113MEL    N00 1681   1.157   1.174   2.633  0.2638 -0.6022  0.0738
  113MEL    C01 1682   1.067   1.184   2.732 -0.2648 -0.1243  0.2575
  113MEL    N02 1683   0.999   1.300   2.742 -0.2784 -0.0109  0.7714
  113MEL    C03 1684   0.909   1.309   2.840 -0.8254 -0.4686 -0.0201
  113MEL    N04 1685   0.844   1.425   2.856 -0.3309  0.5339  0.1515
  113MEL    N05 1686   0.876   1.206   2.921 -0.2038 -0.0955 -0.2240
  113MEL    C06 1687   0.941   1.090   2.896 -0.2253 -0.0748  0.6650
  113MEL    N07 1688   0.910   0.986   2.976 -0.4445  0.3163 -0.1576
  113MEL    N08 1689   1.042   1.075   2.806 -0.2428  0.1906  0.4033
  113MEL    H09 1690   1.187   1.262   2.579  0.1182  1.1508 -2.0338
  113MEL    H0A 1691   1.213   1.089   2.625 -1.2521  3.4516 -0.9011
  113MEL    H0B 1692   0.852   1.495   2.781 -1.3128 -2.7383 -0.6493
  113MEL    H0C 1693   0.765   1.434   2.915  1.2695 -0.7874  1.8083
  113MEL    H0D 1694   0.968   0.901   2.973 -0.4271  2.5077 -2.8775
  113MEL    H0E 1695   0.836   0.984   3.050  1.0097 -1.9988 -1.2198
  114MEL    N00 1696   1.754   0.226   0.039  0.2825 -0.4560 -0.5158
  114MEL    C01 1697   1.851   0.226  -0.046 -0.1045 -0.1297 -0.5585
  114MEL    N02 1698   1.924   0.121  -0.048 -0.9487  0.0119 -0.0586
  114MEL    C03 1699   2.019   0.123  -0.142  0.7208 -0.2815 -0.3486
  114MEL    N04 1700   2.079   0.004  -0.150  0.6457 -0.1028  0.3176
  114MEL    N05 1701   2.053   0.222  -0.224  0.0007 -0.6459  0.3627
  114MEL    C06 1702   1.978   0.336  -0.201 -0.5196  0.1686 -0.2085
  114MEL    N07 1703   2.002   0.450  -0.265  0.2735  0.0555  0.2164
  114MEL    N08 1704   1.876   0.341  -0.113  0.1407  0.9176  0.2014
  114MEL    H09 1705   1.731   0.143   0.091  0.7576 -0.6976  0.0201
  114MEL    H0A 1706   1.715   0.316   0.059  2.6904 -2.0565 -0.8353
  114MEL    H0B 1707   2.065  -0.061  -0.070  1.0257 -0.1393  1.7502
  114MEL    H0C 1708   2.165  -0.005  -0.198 -0.2268  0.5056 -0.6998
  114MEL    H0D 1709   1.937   0.524  -0.254 -1.2141 -1.8091 -0.1459
  114MEL    H0E 1710   2.084   0.456  -0.322  0.5850 -1.3006 -0.8938
  115MEL    N00 1711   2.297   1.535   0.041  0.2958 -0.4025 -0.0625
  115MEL    C01 1712   2.377   1.548  -0.060  0.5648 -0.4608  1.3074
  115MEL    N02 1713   2.434   1.667  -0.074 -0.1499 -0.3823  0.0777
  115MEL    C03 1714   2.531   1.670  -0.170  0.3633 -0.5923  0.9536
  115MEL    N04 1715   2.593   1.789  -0.180 -0.2720 -0.3247 -1.0050
  115MEL    N05 1716   2.569   1.569  -0.251 -0.0097  1.0622  0.2044
  115MEL    C06 1717   2.509   1.451  -0.226  0.3465 -0.4455  0.0821
  115MEL    N07 1718   2.530   1.346  -0.302 -0.4925 -0.4720 -0.1003
  115MEL    N08 1719   2.403   1.442  -0.141  0.5160  0.2728 -0.5027
  115MEL    H09 1720   2.261   1.614   0.095 -0.5452 -0.7395 -0.5624
  115MEL    H0A 1721   2.255   1.443   0.053 -2.7187 -0.6955 -0.7976
  115MEL    H0B 1722   2.573   1.854  -0.099 -0.6260  3.1443  0.3565
  115MEL    H0C 1723   2.680   1.792  -0.230 -0.5581 -0.0199 -1.3443
  115MEL    H0D 1724   2.475   1.266  -0.315 -0.6739  2.3052  2.7280
  115MEL    H0E 1725   2.605   1.356  -0.371 -1.2442 -1.5015  0.7930
  116MEL    N00 1726   1.665   0.624   2.637 -0.4733  1.2526 -0.3670
  116MEL    C01 1727   1.564   0.627   2.725  0.2941 -1.0898  0.1842
  116MEL    N02 1728   1.515   0.502   2.756  0.0496 -0.6653  0.2467
  116MEL    C03 1729   1.417   0.503   2.850 -0.2227 -0.4205 -0.2274
  116MEL    N04 1730   1.353   0.386   2.874  0.1580  0.3901  0.2847
  116MEL    N05 1731   1.378   0.616   2.913 -0.5071  0.5278 -0.4381
  116MEL    C06 1732   1.438   0.731   2.882  0.7285 -0.1126 -0.4379
  116MEL    N07 1733   1.399   0.838   2.955 -0.3209  0.0067 -0.0453
  116MEL    N08 1734   1.536   0.742   2.786 -0.5473  0.4451 -1.1837
  116MEL    H09 1735   1.704   0.525   2.608  1.5651 -2.7907  1.0121
  116MEL    H0A 1736   1.725   0.707   2.628 -0.2027 -4.4336 -0.7681
  116MEL    H0B 1737   1.359   0.318   2.799 -1.3996 -0.9022 -1.3655
  116MEL    H0C 1738   1.279   0.392   2.939  0.7184  1.1041 -0.1478
  116MEL    H0D 1739   1.447   0.926   2.937 -0.5730  2.6055 -0.3624
  116MEL    H0E 1740   1.333   0.829   3.034 -0.6116  0.8156  0.9919
  117MEL    N00 1741   1.991   1.200   0.652  0.0298  0.5808  0.0894
  117MEL    C01 1742   1.893   1.196   0.744  0.1845  0.5622  0.7109
  117MEL    N02 1743   1.833   1.314   0.771  0.5808 -0.6193 -0.2182
  117MEL    C03 1744   1.730   1.306   0.859 -0.6905 -0.2702 -0.2618
  117MEL    N04 1745   1.671   1.427   0.882 -0.9904 -0.4032 -0.1882
  117MEL    N05 1746   1.693   1.201   0.928  0.1851 -0.5154  0.0716
  117MEL    C06 1747   1.765   1.091   0.897 -0.3078 -0.3899  0.7737
  117MEL    N07 1748   1.744   0.982   0.970  0.4956 -0.5098  0.9629
  117MEL    N08 1749   1.868   1.077   0.810  0.2410 -0.7876 -0.2279
  117MEL    H09 1750   2.018   1.284   0.601 -0.7705  1.4927 -0.9665
  117MEL    H0A 1751   2.039   1.111   0.631  0.1613 -3.5801  1.2009
  117MEL    H0B 1752   1.686   1.490   0.798 -0.4961  1.4243 -2.7543
  117MEL    H0C 1753   1.582   1.420   0.931  0.0854  3.1676  0.0606
  117MEL    H0D 1754   1.797   0.899   0.946 -1.5335  3.4693  0.0639
  117MEL    H0E 1755   1.667   0.966   1.039  1.2041 -1.4878  2.1754
  118MEL    N00 1756   1.484   0.220   0.706 -0.3605  0.0667  0.2547
  118MEL    C01 1757   1.574   0.215   0.606 -0.4589 -0.4132 -0.3460
  118MEL    N02 1758   1.644   0.103   0.601 -0.8255 -0.0235  0.0999
  118MEL    C03 1759   1.748   0.107   0.512 -0.0855 -0.3869  0.0993
  118MEL    N04 1760   1.826   0.002   0.495  0.6133  0.4094 -0.4522
  118MEL    N05 1761   1.785   0.214   0.442 -0.2937  0.1998  0.0672
  118MEL    C06 1762   1.713   0.326   0.465  0.3166  0.1071 -0.5710
  118MEL    N07 1763   1.742   0.444   0.402 -0.2410  0.4897  0.0492
  118MEL    N08 1764   1.594   0.328   0.533 -0.9237  0.3933 -0.3741
  118MEL    H09 1765   1.458   0.138   0.760  0.0589 -0.2475  0.7165
  118MEL    H0A 1766   1.467   0.313   0.736 -0.0983  0.2522  0.6331
  118MEL    H0B 1767   1.813  -0.064   0.575 -3.7499 -1.4161  2.7003
  118MEL    H0C 1768   1.912   0.030   0.450 -1.9752 -0.0457 -0.4362
  118MEL    H0D 1769   1.691   0.530   0.420  0.1790  0.3902 -2.2025
  118MEL    H0E 1770   1.832   0.451   0.350 -0.5601 -0.6541  0.3736
  119MEL    N00 1771   1.990   1.526   0.724 -0.3023  0.4756  0.1469
  119MEL    C01 1772   2.085   1.535   0.635 -0.4601  0.4333  0.2229
  119MEL    N02 1773   2.140   1.659   0.621  0.0450 -0.4621  0.1414
  119MEL    C03 1774   2.235   1.662   0.521  0.2287  0.2877  0.1631
  119MEL    N04 1775   2.292   1.784   0.506  0.6184  0.2349 -0.0571
  119MEL    N05 1776   2.274   1.565   0.442  0.0192  0.2543  0.3371
  119MEL    C06 1777   2.217   1.442   0.473 -0.2392 -0.7149 -0.7107
  119MEL    N07 1778   2.250   1.348   0.390 -0.3299  0.0457 -0.0309
  119MEL    N08 1779   2.122   1.421   0.570  0.5585  0.0235 -0.8127
  119MEL    H09 1780   1.969   1.609   0.776 -0.4454  0.8691 -1.3824
  119MEL    H0A 1781   1.947   1.434   0.746 -0.7601  1.8806 -3.6357
  119MEL    H0B 1782   2.273   1.861   0.571 -0.8250 -0.7251  1.2241
  119MEL    H0C 1783   2.371   1.789   0.441  0.9935 -0.9479 -1.3246
  119MEL    H0D 1784   2.189   1.264   0.388 -0.3134 -2.3392 -0.6300
  119MEL    H0E 1785   2.317   1.365   0.317 -0.2586  0.7351 -2.6270
  120MEL    N00 1786   2.490   0.606   0.614 -0.8363 -0.1351  0.2602
  120MEL    C01 1787   2.404   0.601   0.710  0.0016 -0.4506  0.1287
  120MEL    N02 1788   2.330   0.488   0.734 -0.0041 -0.1660  0.1362
  120MEL    C03 1789   2.235   0.499   0.827 -0.0691 -0.6472  0.2935
  120MEL    N04 1790   2.163   0.385   0.849 -0.5372 -0.1057 -0.2604
  120MEL    N05 1791   2.206   0.610   0.901 -0.1334  0.6763  0.0172
  120MEL    C06 1792   2.290   0.710   0.873 -0.3467 -0.4390 -0.9570
  120MEL    N07 1793   2.258   0.826   0.935 -0.1456 -0.4779 -0.3586
  120MEL    N08 1794   2.389   0.714   0.785  0.3436  0.0173  0.7492
  120MEL    H09 1795   2.516   0.520   0.569  0.2281 -0.6423  0.1429
  120MEL    H0A 1796   2.542   0.695   0.615  0.6579  1.2481  1.8401
  120MEL    H0B 1797   2.177   0.311   0.781  1.6412 -0.3149 -0.1225
  120MEL    H0C 1798   2.091   0.379   0.914 -0.8818  3.4436 -0.6338
  120MEL    H0D 1799   2.321   0.907   0.936 -1.1217 -2.3141 -1.0699
  120MEL    H0E 1800   2.182   0.828   1.000 -2.0992  0.7674 -1.2659
  121MEL    N00 1801   1.733   1.194   1.307 -0.6119 -0.7800 -0.0828
  121MEL    C01 1802   1.631   1.201   1.393  0.9913 -0.1494  0.0686
  121MEL    N02 1803   1.559   1.316   1.403 -0.1208  0.1762 -0.2667
  121MEL    C03 1804   1.464   1.319   1.498 -0.0552 -0.1527  0.1572
  121MEL    N04 1805   1.402   1.433   1.521  0.0636  0.4526 -0.2773
  121MEL    N05 1806   1.438   1.217   1.583 -0.1162  0.0037  0.2183
  121MEL    C06 1807   1.514   1.106   1.554  0.1329  0.1906  0.1659
  121MEL    N07 1808   1.487   0.995   1.627 -0.5337 -0.2368 -0.0144
  121MEL    N08 1809   1.611   1.089   1.464  0.3771 -0.4912 -0.1090
  121MEL    H09 1810   1.771   1.279   1.254  1.5438  0.2621  1.3976
  121MEL    H0A 1811   1.774   1.100   1.307 -0.7864  0.1454 -2.3653
  121MEL    H0B 1812   1.414   1.511   1.454 -2.5789 -0.4694  0.8268
  121MEL    H0C 1813   1.322   1.435   1.586 -0.1653 -1.2015  0.1857
  121MEL    H0D 1814   1.546   0.909   1.632 -1.7608 -0.4534 -1.7116
  121MEL    H0E 1815   1.408   0.995   1.689  0.5216  0.5608 -1.7257
  122MEL    N00 1816   1.195   0.250   1.368  0.5740 -0.2565 -0.7002
  122MEL    C01 1817   1.291   0.257   1.275 -0.3119 -0.2078 -0.7897
  122MEL    N02 1818   1.365   0.141   1.267  0.0341 -0.3098  0.5670
  122MEL    C03 1819   1.471   0.154   1.182  0.3736  0.2035  0.0884
  122MEL    N04 1820   1.540   0.044   1.148 -0.4529 -0.0355  0.2911
  122MEL    N05 1821   1.505   0.261   1.109 -0.1803  0.1424 -0.0883
  122MEL    C06 1822   1.426   0.366   1.130 -0.0832  0.0751 -0.2715
  122MEL    N07 1823   1.456   0.478   1.065 -0.0829  0.4621 -0.5265
  122MEL    N08 1824   1.317   0.378   1.213  0.0496 -0.0087 -0.5114
  122MEL    H09 1825   1.160   0.165   1.409  4.5318  2.1240 -2.0056
  122MEL    H0A 1826   1.146   0.335   1.399 -2.2064  1.9117 -1.5173
  122MEL    H0B 1827   1.526  -0.041   1.209 -1.7625  1.2479  2.4532
  122MEL    H0C 1828   1.624   0.067   1.102  0.0221  0.9394 -1.5696
  122MEL    H0D 1829   1.390   0.558   1.069 -0.0840  0.9586  2.2284
  122MEL    H0E 1830   1.538   0.479   1.004 -1.2326 -1.0514  5.0736
  123MEL    N00 1831   1.720   1.584   1.360 -0.3614 -0.4919 -0.0830
  123MEL    C01 1832   1.817   1.574   1.280  0.6112  0.2524 -0.5544
  123MEL    N02 1833   1.876   1.689   1.240  1.0266  0.2985  0.5386
  123MEL    C03 1834   1.977   1.679   1.149  0.4421  0.1169 -0.2733
  123MEL    N04 1835   2.037   1.800   1.123  0.4279 -0.7658  0.1584
  123MEL    N05 1836   2.008   1.568   1.080  0.5461  0.5279  0.5869
  123MEL    C06 1837   1.947   1.457   1.125  0.3305 -0.0947 -0.2232
  123MEL    N07 1838   1.994   1.340   1.087  0.5075 -0.0040 -0.0231
  123MEL    N08 1839   1.853   1.451   1.224 -0.5239  0.5574 -0.2218
  123MEL    H09 1840   1.682   1.679   1.390 -0.8449 -0.2738 -0.1421
  123MEL    H0A 1841   1.678   1.489   1.380  0.9960 -1.3947 -1.9693
  123MEL    H0B 1842   2.004   1.878   1.178 -0.7892 -0.0275  1.3333
  123MEL    H0C 1843   2.117   1.816   1.069 -2.1411  1.1603 -1.8803
  123MEL    H0D 1844   1.956   1.250   1.124 -0.9395 -1.3742  2.8643
  123MEL    H0E 1845   2.077   1.333   1.027 -0.8582 -0.9499  0.7254
  124MEL    N00 1846   2.210   0.593   1.307 -0.4618  0.1129 -0.5050
  124MEL    C01 1847   2.123   0.586   1.404  0.7228 -0.6087  0.5001
  124MEL    N02 1848   2.046   0.475   1.403 -0.0266 -0.3098 -0.6696
  124MEL    C03 1849   1.961   0.466   1.511 -0.1638  0.3580 -0.3855
  124MEL    N04 1850   1.888   0.351   1.531 -0.5941 -0.0556 -0.7211
  124MEL    N05 1851   1.928   0.571   1.589 -0.1089  0.0078 -0.6547
  124MEL    C06 1852   1.987   0.693   1.555 -0.3141  0.5225 -0.7385
  124MEL    N07 1853   1.964   0.798   1.631 -0.2406  0.4831  0.0007
  124MEL    N08 1854   2.087   0.697   1.472  0.4122  0.4131  0.0631
  124MEL    H09 1855   2.244   0.506   1.266 -0.0618  0.1276 -1.0863
  124MEL    H0A 1856   2.257   0.681   1.297 -1.2527  0.1576  0.5827
  124MEL    H0B 1857   1.883   0.281   1.458 -2.3574 -1.0896 -0.1443
  124MEL    H0C 1858   1.817   0.343   1.601 -2.6067 -0.1328  0.6833
  124MEL    H0D 1859   2.013   0.888   1.624 -0.9378 -1.9410 -1.0615
  124MEL    H0E 1860   1.881   0.785   1.693  1.3972  2.1215  1.3016
  125MEL    N00 1861   1.450   1.207   1.967  0.4782 -0.2510  0.0124
  125MEL    C01 1862   1.352   1.199   2.054  0.1486 -0.0849 -0.0136
  125MEL    N02 1863   1.290   1.319   2.070  0.1950 -0.7197 -0.2891
  125MEL    C03 1864   1.195   1.317   2.170 -0.4513  0.5845  0.0981
  125MEL    N04 1865   1.122   1.427   2.185  0.0035  0.3936 -0.3066
  125MEL    N05 1866   1.152   1.210   2.243 -0.1472 -0.1603  0.6489
  125MEL    C06 1867   1.232   1.102   2.221  0.4655 -0.8964 -0.0360
  125MEL    N07 1868   1.206   0.995   2.294  0.1372 -0.5214 -0.3521
  125MEL    N08 1869   1.329   1.090   2.132 -0.5044  0.9914 -0.2555
  125MEL    H09 1870   1.475   1.301   1.936  1.2883 -2.7161 -1.0290
  125MEL    H0A 1871   1.508   1.127   1.950  0.4658  1.6935  0.5140
  125MEL    H0B 1872   1.136   1.507   2.122  0.4993  0.7871  1.3112
  125MEL    H0C 1873   1.038   1.421   2.242  0.4613  0.0246  1.4807
  125MEL    H0D 1874   1.258   0.913   2.280 -0.1504  0.8040 -1.1043
  125MEL    H0E 1875   1.119   0.994   2.347  1.7113  1.9212  2.5753
  126MEL    N00 1876   0.927   0.248   2.045  0.0152 -0.0184 -0.2100
  126MEL    C01 1877   1.020   0.239   1.954 -0.7178 -0.2878  0.0628
  126MEL    N02 1878   1.089   0.123   1.940 -0.1762  0.3332  0.0171
  126MEL    C03 1879   1.172   0.122   1.837 -0.1809 -0.3202 -0.5700
  126MEL    N04 1880   1.245   0.013   1.833 -0.3796 -0.2913  0.2816
  126MEL    N05 1881   1.205   0.230   1.758  0.0509  0.2881  0.3180
  126MEL    C06 1882   1.135   0.344   1.783 -0.1612 -0.4784  0.5880
  126MEL    N07 1883   1.172   0.453   1.723 -0.2449 -0.6342 -0.1803
  126MEL    N08 1884   1.041   0.350   1.875 -0.2286 -0.3520  0.2996
  126MEL    H09 1885   0.898   0.170   2.107  1.1213  1.1071  0.2529
  126MEL    H0A 1886   0.875   0.335   2.046 -0.3460 -2.1881 -0.6806
  126MEL    H0B 1887   1.239  -0.050   1.911  1.4866  0.8150  0.7382
  126MEL    H0C 1888   1.335   0.015   1.782  0.2453 -1.5061 -0.9780
  126MEL    H0D 1889   1.120   0.537   1.740  0.9191 -2.1652 -0.9342
  126MEL    H0E 1890   1.252   0.455   1.660  2.9106  0.4688 -0.4074
  127MEL    N00 1891   1.450   1.561   2.051  0.3381  0.3892  0.2163
  127MEL    C01 1892   1.550   1.562   1.960 -0.1193 -0.4735 -0.4971
  127MEL    N02 1893   1.626   1.678   1.943  0.2237 -0.1409  0.2419
  127MEL    C03 1894   1.704   1.675   1.836  0.2941 -0.4514  0.5592
  127MEL    N04 1895   1.776   1.782   1.820 -0.4860 -0.5800 -0.6048
  127MEL    N05 1896   1.726   1.568   1.759 -0.5124  0.1547  0.6656
  127MEL    C06 1897   1.660   1.459   1.789  0.5061 -0.0036  0.2400
  127MEL    N07 1898   1.696   1.351   1.722 -0.1758 -0.1848 -0.2472
  127MEL    N08 1899   1.569   1.450   1.886  0.0374 -0.1747  0.3058
  127MEL    H09 1900   1.431   1.657   2.087  3.1441  0.5614 -1.7061
  127MEL    H0A 1901   1.383   1.481   2.062  1.8903  0.3014  1.2266
  127MEL    H0B 1902   1.765   1.851   1.892  1.6731 -1.3909 -0.4638
  127MEL    H0C 1903   1.851   1.795   1.755  2.6842 -1.6082  0.2402
  127MEL    H0D 1904   1.649   1.261   1.747 -2.7037 -2.0944  1.1180
  127MEL    H0E 1905   1.781   1.358   1.663 -0.0338  2.6359 -0.9713
  128MEL    N00 1906   1.957   0.628   1.965 -0.1888  0.5188 -0.1216
  128MEL    C01 1907   1.864   0.615   2.062  0.8840 -0.8333 -0.3203
  128MEL    N02 1908   1.796   0.500   2.066 -0.6498 -0.0434  0.0869
  128MEL    C03 1909   1.692   0.504   2.149  0.8834  0.0125  0.5628
  128MEL    N04 1910   1.619   0.385   2.150 -0.4317 -0.4320  0.2527
  128MEL    N05 1911   1.652   0.607   2.225  0.4923  0.5617  0.4358
  128MEL    C06 1912   1.727   0.719   2.208 -0.5887  0.0441  0.4042
  128MEL    N07 1913   1.700   0.825   2.284 -0.2495  0.0105  0.0273
  128MEL    N08 1914   1.834   0.728   2.133 -0.1858  0.4208  1.0344
  128MEL    H09 1915   1.992   0.550   1.907 -0.7098  0.4867 -0.8712
  128MEL    H0A 1916   1.985   0.723   1.942 -1.0175 -1.1321 -1.1804
  128MEL    H0B 1917   1.651   0.310   2.088 -2.1723  0.0998  2.5721
  128MEL    H0C 1918   1.540   0.372   2.206  0.9468  1.8861 -0.6902
  128MEL    H0D 1919   1.772   0.897   2.280 -0.5758  0.4839  0.4800
  128MEL    H0E 1920   1.623   0.824   2.356  1.7731  2.2673 -1.5719
  129MEL    N00 1921   1.147   1.903   2.665  0.4512  0.7030  0.6597
  129MEL    C01 1922   1.056   1.908   2.757  0.0768 -0.4226  0.2652
  129MEL    N02 1923   1.003   2.030   2.766 -0.3759  0.6683  0.0645
  129MEL    C03 1924   0.905   2.037   2.862  0.7162  1.0042  0.4741
  129MEL    N04 1925   0.836   2.148   2.885  0.3853  0.2125 -0.2715
  129MEL    N05 1926   0.864   1.932   2.935  0.1185  0.3755 -0.2542
  129MEL    C06 1927   0.930   1.813   2.911  0.0008 -0.4485  0.1864
  129MEL    N07 1928   0.911   1.710   2.991  0.4409 -0.2384  0.1778
  129MEL    N08 1929   1.035   1.800   2.828 -0.0976  0.7725 -0.0980
  129MEL    H09 1930   1.161   1.991   2.607 -0.4385 -1.2534  1.7153
  129MEL    H0A 1931   1.208   1.819   2.660  1.0434 -2.2788  1.2324
  129MEL    H0B 1932   0.855   2.230   2.831 -0.2452 -0.1145  1.2061
  129MEL    H0C 1933   0.750   2.142   2.939 -1.2110 -2.5270 -0.6320
  129MEL    H0D 1934   0.960   1.623   2.975 -1.7530  1.4089  1.3708
  129MEL    H0E 1935   0.825   1.711   3.055  0.6291 -0.9408 -3.4988
  130MEL    N00 1936   1.799   0.980   0.063  0.1238 -0.1592 -0.0072
  130MEL    C01 1937   1.885   0.975  -0.039  0.4301 -0.4950 -0.2181
  130MEL    N02 1938   1.950   0.856  -0.049 -0.5057 -0.6830 -0.6239
  130MEL    C03 1939   2.029   0.849  -0.155  0.3480  0.2138  0.0269
  130MEL    N04 1940   2.084   0.730  -0.176  0.0767  0.0409  0.6344
  130MEL    N05 1941   2.064   0.948  -0.234  0.0387 -0.1101  0.5047
  130MEL    C06 1942   1.995   1.063  -0.213  0.6961  0.6277  0.3269
  130MEL    N07 1943   2.018   1.169  -0.294 -0.3728  0.0806 -0.6367
  130MEL    N08 1944   1.897   1.081  -0.124 -0.2879 -0.2772 -0.3905
  130MEL    H09 1945   1.772   0.899   0.111  0.0805 -2.5386  3.3279
  130MEL    H0A 1946   1.742   1.065   0.080 -1.8533 -0.8434 -0.1620
  130MEL    H0B 1947   2.065   0.654  -0.104  1.4331  0.7375  2.2049
  130MEL    H0C 1948   2.155   0.721  -0.245 -0.3332  1.4712 -3.0510
  130MEL    H0D 1949   1.961   1.256  -0.283  2.8307  0.5817  1.7780
  130MEL    H0E 1950   2.103   1.167  -0.355  3.8427 -0.1248 -0.0002
  131MEL    N00 1951   2.271   0.117   0.047 -0.6580  0.0308  0.5416
  131MEL    C01 1952   2.349   0.116  -0.054  0.0220  0.3741 -0.0873
  131MEL    N02 1953   2.397   0.241  -0.084  0.5425 -0.0933 -0.0134
  131MEL    C03 1954   2.503   0.242  -0.161 -0.2784 -0.0137 -0.4740
  131MEL    N04 1955   2.560   0.357  -0.172 -0.4158 -0.8032  0.0596
  131MEL    N05 1956   2.551   0.135  -0.229  0.2876 -0.2469  0.2531
  131MEL    C06 1957   2.491   0.021  -0.202 -0.8584 -0.4977 -0.4556
  131MEL    N07 1958   2.528  -0.087  -0.273  0.0669  1.0892  0.0023
  131MEL    N08 1959   2.390  -0.003  -0.115 -0.3416 -0.2710 -0.2890
  131MEL    H09 1960   2.237   0.209   0.085  0.7918  2.2111 -1.9782
  131MEL    H0A 1961   2.219   0.029   0.081 -1.6491  0.0005 -1.2084
  131MEL    H0B 1962   2.527   0.436  -0.113 -3.7057  0.7950 -1.3430
  131MEL    H0C 1963   2.643   0.379  -0.233 -0.0306  0.3360  1.2386
  131MEL    H0D 1964   2.467  -0.174  -0.282  0.1787 -0.2184 -0.4335
  131MEL    H0E 1965   2.611  -0.088  -0.334 -1.9066  0.8267  1.8007
  132MEL    N00 1966   1.661   1.345   2.633  0.5105 -0.0467 -0.2715
  132MEL    C01 1967   1.568   1.335   2.731  0.2100  0.3638  0.3115
  132MEL    N02 1968   1.502   1.220   2.739 -0.1013  0.3530 -0.2298
  132MEL    C03 1969   1.415   1.211   2.839  0.2801  0.1992  0.4970
  132MEL    N04 1970   1.358   1.091   2.847  0.4637  0.3185 -0.5977
  132MEL    N05 1971   1.392   1.312   2.931 -0.1080  0.6556 -0.0179
  132MEL    C06 1972   1.452   1.431   2.905 -0.2901 -0.1503 -0.1213
  132MEL    N07 1973   1.423   1.533   2.981  0.2569  0.1311 -1.0152
  132MEL    N08 1974   1.544   1.445   2.805  0.0474  0.3830  0.1140
  132MEL    H09 1975   1.697   1.252   2.611 -0.6648 -0.9836 -1.7933
  132MEL    H0A 1976   1.712   1.433   2.624 -1.4147  0.3647  2.0071
  132MEL    H0B 1977   1.366   1.037   2.762  0.2199  2.7461 -1.1420
  132MEL    H0C 1978   1.285   1.068   2.904 -1.1766  1.1520  1.7587
  132MEL    H0D 1979   1.470   1.623   2.978 -1.2742  1.0017 -1.7222
  132MEL    H0E 1980   1.356   1.520   3.060 -0.5907 -0.2142 -1.8908
  133MEL    N00 1981   1.976   1.895   0.629 -0.1510  0.4064 -0.0742
  133MEL    C01 1982   1.890   1.906   0.728  0.8319  0.2448  0.1691
  133MEL    N02 1983   1.835   2.031   0.747 -0.2561  0.2948  1.0702
  133MEL    C03 1984   1.747   2.035   0.847 -0.4341  0.2644  0.1089
  133MEL    N04 1985   1.681   2.148   0.860 -0.0577 -0.3625 -0.0976
  133MEL    N05 1986   1.709   1.928   0.922  0.1131 -0.8363  0.0215
  133MEL    C06 1987   1.778   1.818   0.895 -0.4421 -0.5246  0.4417
  133MEL    N07 1988   1.744   1.712   0.957 -0.1096 -0.1115 -0.9640
  133MEL    N08 1989   1.861   1.795   0.797  0.1209 -0.2511 -0.1265
  133MEL    H09 1990   2.012   1.980   0.585  0.7970 -0.8738 -0.0793
  133MEL    H0A 1991   2.024   1.796   0.625 -2.9947  1.9853  0.9332
  133MEL    H0B 1992   1.689   2.224   0.789 -0.0058  1.0216  0.3837
  133MEL    H0C 1993   1.601   2.143   0.931 -2.0412  1.3019  1.3631
  133MEL    H0D 1994   1.795   1.623   0.937 -0.4542 -2.4995  0.0931
  133MEL    H0E 1995   1.665   1.706   1.020  1.3061 -1.5701 -0.3687
  134MEL    N00 1996   1.489   0.979   0.710  0.3252 -0.2153  0.3051
  134MEL    C01 1997   1.588   0.973   0.628 -0.0794  0.0522 -0.1525
  134MEL    N02 1998   1.647   0.848   0.615  0.1591 -0.5074 -0.4975
  134MEL    C03 1999   1.745   0.853   0.525  0.3297 -0.1038  0.0634
  134MEL    N04 2000   1.815   0.744   0.509  0.6219  0.6036  0.3279
  134MEL    N05 2001   1.798   0.959   0.460  0.1999  0.2197  0.2334
  134MEL    C06 2002   1.721   1.070   0.463  0.4505  0.1159 -0.2868
  134MEL    N07 2003   1.752   1.171   0.385  0.0708  0.3084  0.3378
  134MEL    N08 2004   1.617   1.089   0.551  0.3839 -0.0881  0.4958
  134MEL    H09 2005   1.449   0.893   0.754  0.4915  1.4449  1.9015
  134MEL    H0A 2006   1.438   1.071   0.721  0.5950  2.3755 -0.5160
  134MEL    H0B 2007   1.797   0.664   0.572  3.2236 -1.2449  0.5362
  134MEL    H0C 2008   1.898   0.746   0.454 -0.9476  4.3952 -2.1901
  134MEL    H0D 2009   1.694   1.254   0.377  0.8771 -1.0789  1.4535
  134MEL    H0E 2010   1.834   1.168   0.315 -1.8891  0.0081  0.5818
  135MEL    N00 2011   1.990   0.103   0.710  0.3067 -0.5988  0.1930
  135MEL    C01 2012   2.094   0.109   0.628  0.1921  0.1252  0.0327
  135MEL    N02 2013   2.149   0.232   0.601 -0.3528  0.4369  0.6763
  135MEL    C03 2014   2.242   0.227   0.501 -0.1143 -0.9090  0.0007
  135MEL    N04 2015   2.312   0.341   0.482 -0.6986 -0.3825  0.1517
  135MEL    N05 2016   2.283   0.118   0.436  0.3211 -0.0870  0.9670
  135MEL    C06 2017   2.212   0.009   0.465  0.6829 -0.6824  0.0778
  135MEL    N07 2018   2.251  -0.099   0.396  0.3141  0.0461  0.1044
  135MEL    N08 2019   2.115  -0.006   0.558 -0.3432  0.6660  0.1732
  135MEL    H09 2020   1.951   0.187   0.756 -0.7391 -0.7828 -0.6709
  135MEL    H0A 2021   1.946   0.005   0.733 -0.3872 -1.9716  0.8501
  135MEL    H0B 2022   2.306   0.415   0.556 -1.0703  0.3617  0.3148
  135MEL    H0C 2023   2.412   0.328   0.447  1.0774  2.1188  1.0813
  135MEL    H0D 2024   2.190  -0.182   0.418  1.0864 -0.3459 -0.4486
  135MEL    H0E 2025   2.331  -0.105   0.336 -0.2102 -1.2740 -1.0431
  136MEL    N00 2026   2.493   1.318   0.632  0.3922 -0.2118 -0.0794
  136MEL    C01 2027   2.398   1.317   0.724  0.2462  0.0224  0.5813
  136MEL    N02 2028   2.336   1.200   0.746  0.0428  0.9231 -0.0029
  136MEL    C03 2029   2.235   1.207   0.836  0.0208 -0.3285  0.8907
  136MEL    N04 2030   2.161   1.096   0.851 -0.4495  0.2378  0.2887
  136MEL    N05 2031   2.206   1.310   0.910  0.0528 -0.0219 -0.1204
  136MEL    C06 2032   2.277   1.419   0.887 -0.0514  0.9364 -0.7472
  136MEL    N07 2033   2.249   1.529   0.954  0.7261 -0.2645 -0.3632
  136MEL    N08 2034   2.382   1.429   0.802 -0.2322  0.3893 -0.2152
  136MEL    H09 2035   2.528   1.225   0.590 -0.6313 -2.3967  1.2706
  136MEL    H0A 2036   2.546   1.404   0.623 -1.1702  0.1914  0.4769
  136MEL    H0B 2037   2.177   1.036   0.777 -0.3173 -0.0050 -1.0954
  136MEL    H0C 2038   2.069   1.110   0.890 -0.3680  0.2298  0.4466
  136MEL    H0D 2039   2.299   1.622   0.941  0.2596  2.7442 -2.4507
  136MEL    H0E 2040   2.161   1.526   1.007  0.8542  3.7356 -1.2592
  137MEL    N00 2041   1.697   1.938   1.290 -0.6630 -0.2038 -0.3757
  137MEL    C01 2042   1.610   1.941   1.387  0.4300 -0.1083  0.0837
  137MEL    N02 2043   1.548   2.064   1.414  0.8292  0.6401 -0.5283
  137MEL    C03 2044   1.449   2.056   1.508  0.0130 -0.4641  0.1459
  137MEL    N04 2045   1.377   2.166   1.531  0.5684  0.6383 -0.0767
  137MEL    N05 2046   1.419   1.945   1.575 -0.6084 -0.3373 -0.6487
  137MEL    C06 2047   1.498   1.837   1.550  0.1796 -0.6226  0.7630
  137MEL    N07 2048   1.473   1.726   1.627 -0.4583 -0.7203 -0.0727
  137MEL    N08 2049   1.595   1.827   1.456  0.2916  0.0064 -0.1449
  137MEL    H09 2050   1.727   2.030   1.251  2.4478  0.4935  1.2487
  137MEL    H0A 2051   1.742   1.846   1.269 -0.9023 -0.7423 -1.6094
  137MEL    H0B 2052   1.370   2.233   1.455  0.4782  0.4262  0.6171
  137MEL    H0C 2053   1.292   2.166   1.588  1.2002  0.0207 -0.9044
  137MEL    H0D 2054   1.526   1.643   1.612  0.7433  0.3607 -2.0852
  137MEL    H0E 2055   1.389   1.740   1.685 -0.3359 -2.4255 -2.4226
  138MEL    N00 2056   1.224   0.974   1.392 -0.1331  0.3489 -0.1040
  138MEL    C01 2057   1.316   0.980   1.298 -0.2669  0.0443 -0.9686
  138MEL    N02 2058   1.382   0.867   1.280  0.4363  0.0582 -0.4233
  138MEL    C03 2059   1.476   0.871   1.183  0.6833  0.7333  0.1647
  138MEL    N04 2060   1.547   0.762   1.164  0.5894 -0.4545  0.1858
  138MEL    N05 2061   1.505   0.979   1.105  0.3423 -0.4069  0.2255
  138MEL    C06 2062   1.428   1.087   1.138 -0.2974  0.0993 -0.5696
  138MEL    N07 2063   1.452   1.197   1.063 -0.2626 -0.7518  0.0312
  138MEL    N08 2064   1.325   1.093   1.225  0.5502 -0.6110 -0.6404
  138MEL    H09 2065   1.208   0.886   1.441 -2.0009 -0.6009  0.9852
  138MEL    H0A 2066   1.161   1.056   1.405 -0.8686 -2.1825 -0.4119
  138MEL    H0B 2067   1.550   0.687   1.239 -0.3374 -0.7620 -1.4264
  138MEL    H0C 2068   1.636   0.769   1.108  0.5455  3.0396 -2.0107
  138MEL    H0D 2069   1.397   1.278   1.071  1.6663 -1.5672  1.0134
  138MEL    H0E 2070   1.519   1.180   0.979 -1.5646  1.2163  1.6226
  139MEL    N00 2071   1.697   0.123   1.382 -0.3523 -0.5070 -1.0453
  139MEL    C01 2072   1.793   0.128   1.291  0.5133  0.1772  0.7516
  139MEL    N02 2073   1.858   0.246   1.273  0.8627  0.0088 -0.1600
  139MEL    C03 2074   1.957   0.236   1.182 -0.0651  0.3173  0.1468
  139MEL    N04 2075   2.029   0.346   1.168  0.0029 -0.2389  0.0980
  139MEL    N05 2076   1.993   0.124   1.111 -0.1260 -0.2807 -0.0994
  139MEL    C06 2077   1.925   0.013   1.141  0.0328  0.3517 -0.6194
  139MEL    N07 2078   1.953  -0.097   1.072  0.1079 -0.7432  0.2886
  139MEL    N08 2079   1.819   0.009   1.223  0.0286 -0.3994 -0.2902
  139MEL    H09 2080   1.649   0.208   1.408 -0.2535 -2.9132  0.8976
  139MEL    H0A 2081   1.658   0.031   1.406  0.4602  0.8208  0.3236
  139MEL    H0B 2082   2.015   0.418   1.243  0.0528  2.5838  1.9938
  139MEL    H0C 2083   2.125   0.342   1.126 -0.1790 -1.3212 -1.7281
  139MEL    H0D 2084   1.877  -0.163   1.065 -0.0743 -0.5608  2.1571
  139MEL    H0E 2085   2.037  -0.105   1.008  2.1706 -1.3437 -0.9868
  140MEL    N00 2086   2.233   1.324   1.310 -0.5574  0.1886 -0.4317
  140MEL    C01 2087   2.142   1.317   1.403 -0.0633 -0.6522  1.4196
  140MEL    N02 2088   2.091   1.196   1.433 -0.3774  0.0220 -0.6927
  140MEL    C03 2089   1.986   1.200   1.516  0.6513  0.4455 -0.3964
  140MEL    N04 2090   1.915   1.092   1.523  0.0159  0.2033  0.2653
  140MEL    N05 2091   1.949   1.305   1.590  0.3315 -0.0914  0.2685
  140MEL    C06 2092   2.013   1.419   1.560 -0.4966  0.0543 -0.0988
  140MEL    N07 2093   1.975   1.535   1.619 -0.4737 -0.6907 -0.1488
  140MEL    N08 2094   2.109   1.427   1.467  0.1100  0.5700  0.0582
  140MEL    H09 2095   2.267   1.235   1.276 -0.0268 -1.5325  1.8766
  140MEL    H0A 2096   2.281   1.412   1.279  0.6975  0.4349  2.6973
  140MEL    H0B 2097   1.926   1.016   1.456 -1.5289  0.2357 -0.0266
  140MEL    H0C 2098   1.828   1.105   1.583  1.0704 -0.0893 -2.9680
  140MEL    H0D 2099   2.045   1.611   1.614  0.3359  1.6494  0.8388
  140MEL    H0E 2100   1.897   1.542   1.684 -1.7321 -1.4331 -3.5472
  141MEL    N00 2101   1.456   1.935   1.976 -0.1757  0.1582 -0.5505
  141MEL    C01 2102   1.363   1.932   2.072  0.0783  0.4442 -0.4660
  141MEL    N02 2103   1.291   2.043   2.085 -0.0172 -0.2874 -0.5769
  141MEL    C03 2104   1.195   2.035   2.182 -0.2194 -0.2850 -0.1610
  141MEL    N04 2105   1.133   2.149   2.205  0.0044  0.8411  0.0956
  141MEL    N05 2106   1.168   1.927   2.257 -0.5014 -0.0470  0.3810
  141MEL    C06 2107   1.249   1.818   2.230 -0.0216 -0.6536 -0.2249
  141MEL    N07 2108   1.221   1.704   2.298  0.0652 -0.4168 -0.0443
  141MEL    N08 2109   1.356   1.821   2.148  0.0735 -0.1548 -0.1352
  141MEL    H09 2110   1.482   2.019   1.924 -2.5893  1.9798  0.7698
  141MEL    H0A 2111   1.506   1.846   1.972  0.0820 -1.2822  3.7850
  141MEL    H0B 2112   1.147   2.220   2.134 -2.4943 -1.5095  0.0594
  141MEL    H0C 2113   1.050   2.156   2.263  0.5730  1.0683  0.3148
  141MEL    H0D 2114   1.280   1.620   2.286  0.0826 -0.6016  0.5403
  141MEL    H0E 2115   1.139   1.703   2.361 -0.2313  0.9240 -1.0537
  142MEL    N00 2116   0.951   0.980   2.045 -0.3801  0.3279  0.1528
  142MEL    C01 2117   1.044   0.984   1.951 -0.6048 -0.4993  0.3836
  142MEL    N02 2118   1.112   0.873   1.926 -0.0906  0.9514 -0.2913
  142MEL    C03 2119   1.194   0.876   1.820 -0.0475 -0.4163 -0.6936
  142MEL    N04 2120   1.249   0.760   1.789  0.7183  0.8861 -0.4175
  142MEL    N05 2121   1.221   0.984   1.744 -0.4435 -0.3323 -0.2218
  142MEL    C06 2122   1.156   1.095   1.790 -0.3307  0.2563  0.5484
  142MEL    N07 2123   1.188   1.210   1.731 -0.3872  0.1709  0.2944
  142MEL    N08 2124   1.066   1.099   1.889 -0.2955 -0.2115 -0.0770
  142MEL    H09 2125   0.931   0.891   2.101 -1.7425  0.5876 -0.2771
  142MEL    H0A 2126   0.912   1.072   2.071 -1.5351  0.1298  0.0878
  142MEL    H0B 2127   1.254   0.688   1.858 -1.2844 -0.4200 -1.4146
  142MEL    H0C 2128   1.315   0.755   1.709  1.0318  3.1959 -1.7845
  142MEL    H0D 2129   1.146   1.300   1.760 -2.0973 -3.3034  2.1032
  142MEL    H0E 2130   1.267   1.198   1.664  2.8813  1.5756  1.8370
  143MEL    N00 2131   1.442   0.150   2.020 -0.0183  0.5370 -0.1144
  143MEL    C01 2132   1.542   0.138   1.925  0.1619 -0.4329 -0.0543
  143MEL    N02 2133   1.620   0.245   1.915  0.6016 -0.4288  0.2481
  143MEL    C03 2134   1.715   0.235   1.824 -0.2727 -0.1162  0.8131
  143MEL    N04 2135   1.793   0.343   1.820  0.1686  0.2737 -0.2218
  143MEL    N05 2136   1.743   0.129   1.752  0.4086  0.0877  0.3638
  143MEL    C06 2137   1.654   0.031   1.764  0.1326 -0.0628  0.9321
  143MEL    N07 2138   1.679  -0.075   1.693 -0.5244  0.1459  0.0046
  143MEL    N08 2139   1.559   0.020   1.857 -0.1500 -0.4083 -0.0610
  143MEL    H09 2140   1.419   0.232   2.075  0.3152 -1.3776 -3.7944
  143MEL    H0A 2141   1.383   0.066   2.040 -1.1598 -2.1427  4.0938
  143MEL    H0B 2142   1.777   0.410   1.896 -0.2164  1.6789 -1.1256
  143MEL    H0C 2143   1.887   0.349   1.773  0.0163  1.0646  0.4660
  143MEL    H0D 2144   1.629  -0.159   1.715 -0.5454 -1.6367 -3.7299
  143MEL    H0E 2145   1.765  -0.080   1.641  0.5895 -0.8074  2.3712
  144MEL    N00 2146   1.942   1.345   1.957  0.0582 -0.2863  0.2944
  144MEL    C01 2147   1.847   1.341   2.050  0.6906  0.2021  0.1295
  144MEL    N02 2148   1.786   1.217   2.062  0.9048  0.1008 -0.3985
  144MEL    C03 2149   1.687   1.206   2.155 -0.2042 -0.0061 -0.4250
  144MEL    N04 2150   1.636   1.087   2.179 -0.8346 -0.2601 -0.4673
  144MEL    N05 2151   1.654   1.305   2.235  0.9026  0.4400  0.0960
  144MEL    C06 2152   1.738   1.415   2.228 -0.0846  0.7068  0.6993
  144MEL    N07 2153   1.709   1.508   2.312  1.1077 -0.8506  0.7528
  144MEL    N08 2154   1.826   1.442   2.135  0.1079 -0.4717 -0.3837
  144MEL    H09 2155   1.981   1.256   1.914  1.8070 -0.5546  0.5363
  144MEL    H0A 2156   1.982   1.433   1.925  1.5785  0.5896 -1.1907
  144MEL    H0B 2157   1.662   1.014   2.113  2.8008  2.1070  2.2709
  144MEL    H0C 2158   1.548   1.086   2.233 -0.4978  2.3493  0.7231
  144MEL    H0D 2159   1.767   1.591   2.310 -2.0776  2.8718 -2.2859
  144MEL    H0E 2160   1.626   1.507   2.378 -1.6280  0.2073 -0.5001
   3.02627   2.16332   2.68425   0.00000   0.00000   0.00000   0.00000  -1.10728   0.00000
