Melamine crystal (COD 2205105 supercell)
 2160
    1MEL    N00    1   2.248   0.476   2.612  0.0681 -0.3934 -0.4262
    1MEL    C01    2   2.151   0.479   2.701 -0.2696  0.5399 -0.0426
    1MEL    N02    3   2.094   0.600   2.716  0.4100  0.5968 -0.0686
    1MEL    C03    4   1.997   0.605   2.806 -0.6185 -0.0875  0.5010
    1MEL    N04    5   1.928   0.714   2.818 -0.4959  0.0508  0.4907
    1MEL    N05    6   1.967   0.503   2.897  0.1807 -0.5510  0.6310
    1MEL    C06    7   2.035   0.388   2.879  1.0682 -0.4706  0.2716
    1MEL    N07    8   2.011   0.290   2.966  0.1907  0.2021  0.0534
    1MEL    N08    9   2.132   0.372   2.785  0.5209 -0.3284 -0.0812
    1MEL    H09   10   2.287   0.563   2.575 -2.5717 -0.1831  1.9622
    1MEL    H0A   11   2.295   0.383   2.609 -0.0283 -0.1195 -1.3606
    1MEL    H0B   12   1.946   0.793   2.765 -3.1032 -0.5891  0.0972
    1MEL    H0C   13   1.850   0.701   2.877  0.2819 -0.1593 -0.3115
    1MEL    H0D   14   2.066   0.202   2.971  0.7171  2.3936 -1.6308
    1MEL    H0E   15   1.926   0.294   3.026  0.1862 -0.5635 -1.3915
    2MEL    N00   16   2.864   1.704   0.007  0.5641  0.8037  0.5810
    2MEL    C01   17   2.972   1.708  -0.073 -0.8155  0.0377 -0.3432
    2MEL    N02   18   3.038   1.595  -0.102  0.3781  0.0568 -0.5652
    2MEL    C03   19   3.144   1.606  -0.179 -0.2482  0.0938 -1.0022
    2MEL    N04   20   3.216   1.497  -0.196 -0.2888 -0.5001  0.2068
    2MEL    N05   21   3.187   1.720  -0.227 -0.2868 -0.1475 -0.2237
    2MEL    C06   22   3.114   1.828  -0.200 -0.0619  0.2916 -0.4172
    2MEL    N07   23   3.142   1.942  -0.259  0.1932 -0.1959  0.3681
    2MEL    N08   24   2.998   1.830  -0.129  0.5603  0.3687  0.0550
    2MEL    H09   25   2.835   1.611   0.049 -1.7834 -0.1012 -0.5657
    2MEL    H0A   26   2.809   1.791   0.026 -2.8248  1.1709  0.4588
    2MEL    H0B   27   3.191   1.417  -0.136  1.2949 -0.3714 -0.1079
    2MEL    H0C   28   3.308   1.488  -0.239 -1.2033  2.4119 -0.2891
    2MEL    H0D   29   3.072   2.015  -0.261 -1.1566  1.7787  1.6656
    2MEL    H0E   30   3.228   1.953  -0.310 -2.5946 -2.5215  2.3857
    3MEL    N00   31   0.260   0.846   0.037 -0.1695  0.0853  0.7176
    3MEL    C01   32   0.358   0.849  -0.052  0.2705 -0.0998 -0.2201
    3MEL    N02   33   0.418   0.968  -0.055 -0.7012  0.2939 -0.0209
    3MEL    C03   34   0.519   0.968  -0.148 -0.4741 -0.1227  0.3286
    3MEL    N04   35   0.586   1.085  -0.161  0.0011  0.2628 -0.4804
    3MEL    N05   36   0.560   0.860  -0.220  0.0001  0.1290  0.1468
    3MEL    C06   37   0.499   0.749  -0.194 -0.0686  0.7476  0.0710
    3MEL    N07   38   0.513   0.642  -0.278 -0.6413 -0.0194 -0.5415
    3MEL    N08   39   0.396   0.736  -0.108 -0.5921 -0.0016  0.6102
    3MEL    H09   40   0.209   0.928   0.070 -1.4106  1.7376 -0.2397
    3MEL    H0A   41   0.221   0.753   0.042  0.6122 -1.2856 -0.4384
    3MEL    H0B   42   0.556   1.152  -0.090 -0.9646  0.0745 -1.2780
    3MEL    H0C   43   0.682   1.074  -0.199  0.2922 -0.9192 -1.7490
    3MEL    H0D   44   0.446   0.562  -0.269  0.2639  0.9178 -1.1402
    3MEL    H0E   45   0.590   0.629  -0.341  1.5841  0.2011 -0.2159
    4MEL    N00   46   2.758   2.104   2.624 -0.9803 -0.7301  0.1141
    4MEL    C01   47   2.661   2.116   2.714 -0.5326 -0.5526 -0.5243
    4MEL    N02   48   2.591   2.001   2.730  0.1271 -0.5723 -0.7053
    4MEL    C03   49   2.498   2.011   2.829 -0.0373 -0.1065  0.5962
    4MEL    N04   50   2.424   1.898   2.844 -0.3832  0.6567  0.4221
    4MEL    N05   51   2.472   2.116   2.902  0.3484  0.4859 -0.2217
    4MEL    C06   52   2.549   2.223   2.874 -0.1393  0.0569  0.2864
    4MEL    N07   53   2.530   2.329   2.954 -0.0155  0.1954 -0.6884
    4MEL    N08   54   2.646   2.226   2.783 -0.1337  0.7973  0.1359
    4MEL    H09   55   2.785   2.019   2.577  1.2598  2.2216 -3.9527
    4MEL    H0A   56   2.808   2.191   2.601  0.2307  2.0451  2.5513
    4MEL    H0B   57   2.434   1.815   2.784  0.0362 -0.7874  0.1955
    4MEL    H0C   58   2.365   1.886   2.924  0.1990 -2.1948 -1.9257
    4MEL    H0D   59   2.582   2.413   2.943  1.2515  1.5510 -0.3524
    4MEL    H0E   60   2.452   2.326   3.028 -0.6170  1.4635  0.8431
    5MEL    N00   61   3.106   0.488   0.631  0.6752  0.6283 -0.0804
    5MEL    C01   62   3.009   0.486   0.724 -0.3125  0.0848  0.3582
    5MEL    N02   63   2.946   0.602   0.734 -0.2776  0.1909  0.3390
    5MEL    C03   64   2.849   0.607   0.821 -0.4337  0.1531  0.2964
    5MEL    N04   65   2.783   0.719   0.831 -0.3656 -0.7672  0.2149
    5MEL    N05   66   2.826   0.507   0.913 -0.0523 -0.4480 -0.5439
    5MEL    C06   67   2.889   0.390   0.885  0.3387 -0.2384 -0.3040
    5MEL    N07   68   2.857   0.274   0.948  0.3604  0.0133  0.8870
    5MEL    N08   69   2.999   0.376   0.803  0.0457 -0.1805 -0.2330
    5MEL    H09   70   3.139   0.581   0.604 -2.7546  1.4754  0.8750
    5MEL    H0A   71   3.163   0.400   0.614  0.9212 -1.8471  0.6595
    5MEL    H0B   72   2.790   0.789   0.755 -0.2241 -0.9966  2.2754
    5MEL    H0C   73   2.715   0.733   0.900  0.4822 -1.3788  1.3977
    5MEL    H0D   74   2.917   0.191   0.934  0.7896 -1.1016 -0.3407
    5MEL    H0E   75   2.772   0.262   1.009 -0.5160 -0.0868 -0.9213
    6MEL    N00   76   2.572   1.770   0.696 -0.0678  0.1361  0.2639
    6MEL    C01   77   2.676   1.755   0.615 -0.1536 -0.2274  1.7438
    6MEL    N02   78   2.740   1.634   0.605 -0.5715 -0.2722 -0.5738
    6MEL    C03   79   2.829   1.631   0.501 -0.0326  0.0430 -0.4816
    6MEL    N04   80   2.909   1.526   0.483 -0.0213 -0.3890 -0.3222
    6MEL    N05   81   2.859   1.732   0.413 -0.3390 -0.0836 -0.5231
    6MEL    C06   82   2.793   1.846   0.443 -0.4268  0.3736  0.1488
    6MEL    N07   83   2.822   1.960   0.380  0.6207  0.4967 -0.2143
    6MEL    N08   84   2.698   1.859   0.533  0.4690 -0.1146  0.6741
    6MEL    H09   85   2.536   1.681   0.736 -0.6808  1.1413  0.5792
    6MEL    H0A   86   2.527   1.858   0.706 -0.2021 -2.5216 -0.4983
    6MEL    H0B   87   2.890   1.452   0.554 -2.4970 -0.7394  1.1875
    6MEL    H0C   88   2.981   1.524   0.413  0.1941  0.9431  2.0926
    6MEL    H0D   89   2.778   2.046   0.412  1.0165 -1.4148 -0.3497
    6MEL    H0E   90   2.901   1.966   0.305 -0.9974  0.9347 -0.9995
    7MEL    N00   91   3.120   0.863   0.727 -0.3363 -0.1541 -0.0608
    7MEL    C01   92   3.210   0.865   0.625  0.1954  0.4972  0.1963
    7MEL    N02   93   3.265   0.987   0.605 -0.3775  0.0499 -0.4072
    7MEL    C03   94   3.363   0.991   0.506 -0.1679 -0.1839 -0.0982
    7MEL    N04   95   3.429   1.105   0.495 -0.1590 -0.8927 -0.4925
    7MEL    N05   96   3.394   0.886   0.431 -0.4257 -0.4972  0.0536
    7MEL    C06   97   3.316   0.780   0.444 -0.0665  0.7750  0.4166
    7MEL    N07   98   3.340   0.676   0.363  0.1694  0.1818  0.0911
    7MEL    N08   99   3.211   0.769   0.533  0.1117  0.5332 -0.4519
    7MEL    H09  100   3.101   0.952   0.773 -0.5190  0.8749  0.8979
    7MEL    H0A  101   3.072   0.774   0.743  0.0893 -1.0482 -0.7136
    7MEL    H0B  102   3.416   1.164   0.576 -0.0529  0.1782  2.1458
    7MEL    H0C  103   3.503   1.122   0.432  0.7084  0.6987 -1.1992
    7MEL    H0D  104   3.284   0.588   0.380  0.7295  3.1346  1.7765
    7MEL    H0E  105   3.425   0.679   0.302 -0.5487  2.7841 -0.7658
    8MEL    N00  106   0.497   2.126   0.644  0.1408  0.2797 -0.0108
    8MEL    C01  107   0.402   2.121   0.744 -0.1706 -0.6354  0.2196
    8MEL    N02  108   0.346   2.002   0.756 -0.0330 -0.7985  0.4150
    8MEL    C03  109   0.232   1.999   0.836 -1.2005 -0.5047 -0.2207
    8MEL    N04  110   0.159   1.887   0.844  0.1967  0.4281  0.0938
    8MEL    N05  111   0.207   2.104   0.918  0.3714 -0.3882 -0.3476
    8MEL    C06  112   0.277   2.220   0.905  0.3208  0.8868 -0.4424
    8MEL    N07  113   0.238   2.329   0.972  0.3435 -0.6502  0.8397
    8MEL    N08  114   0.376   2.234   0.818  0.0129  0.2976  0.0074
    8MEL    H09  115   0.525   2.043   0.589 -2.1143 -0.0344 -1.3083
    8MEL    H0A  116   0.541   2.214   0.622  2.4720  1.0587 -3.4334
    8MEL    H0B  117   0.166   1.822   0.760 -1.5495  2.0876 -4.2655
    8MEL    H0C  118   0.070   1.884   0.892  1.3437  1.5264  1.8478
    8MEL    H0D  119   0.290   2.417   0.956  0.6017 -0.2108  3.5579
    8MEL    H0E  120   0.167   2.327   1.044  1.4429  1.4338 -1.0373
    9MEL    N00  121   2.820   0.500   1.278  0.0376 -0.3827 -0.2669
    9MEL    C01  122   2.726   0.487   1.372  0.2711  0.1468 -0.4486
    9MEL    N02  123   2.660   0.603   1.397 -0.0600 -0.2246 -0.1841
    9MEL    C03  124   2.557   0.598   1.475 -0.1827 -0.2710  0.1536
    9MEL    N04  125   2.500   0.716   1.500 -0.4778 -0.0488 -0.1705
    9MEL    N05  126   2.510   0.485   1.533 -0.1062  0.1907  0.4619
    9MEL    C06  127   2.587   0.379   1.520 -0.3600 -0.0120 -0.6852
    9MEL    N07  128   2.565   0.276   1.603 -0.0759  0.3615 -0.2397
    9MEL    N08  129   2.705   0.370   1.447 -0.0443 -0.1961  0.5661
    9MEL    H09  130   2.833   0.591   1.243 -0.2706 -1.7868 -1.2525
    9MEL    H0A  131   2.879   0.419   1.255  0.6347 -0.4630  0.8467
    9MEL    H0B  132   2.521   0.798   1.441  1.8397  1.2845 -2.3634
    9MEL    H0C  133   2.401   0.706   1.531 -0.2162  0.9591 -2.8084
    9MEL    H0D  134   2.622   0.194   1.601  1.2807 -0.2502  0.1959
    9MEL    H0E  135   2.479   0.272   1.647  0.8721 -1.7800 -2.5155
   10MEL    N00  136   2.290   1.730   1.365  0.2366 -0.4187 -0.1828
   10MEL    C01  137   2.378   1.744   1.267  0.5603  0.0438 -0.1971
   10MEL    N02  138   2.445   1.630   1.243  0.0308 -0.3185  0.7795
   10MEL    C03  139   2.545   1.640   1.152 -0.3664  0.0826  0.2425
   10MEL    N04  140   2.623   1.537   1.145  0.1129 -0.3090  0.5899
   10MEL    N05  141   2.576   1.750   1.082 -0.2227  0.4971  0.3332
   10MEL    C06  142   2.509   1.862   1.115 -0.0664  0.1629 -0.5469
   10MEL    N07  143   2.554   1.981   1.067  0.7336  0.2958 -0.8421
   10MEL    N08  144   2.404   1.862   1.205  0.1652  0.0111  0.5636
   10MEL    H09  145   2.263   1.635   1.404  1.5406  0.0431 -0.9283
   10MEL    H0A  146   2.235   1.809   1.401  1.5523 -0.9612 -2.9161
   10MEL    H0B  147   2.611   1.456   1.205 -0.6929 -2.9363 -1.4864
   10MEL    H0C  148   2.701   1.544   1.088 -0.3280 -0.3379 -1.9221
   10MEL    H0D  149   2.507   2.068   1.095 -1.4109  1.2249  1.1085
   10MEL    H0E  150   2.632   1.984   1.005  0.3425 -1.8074  0.5889
   11MEL    N00  151   2.842   0.851   1.378  0.4116  0.4336  0.3728
   11MEL    C01  152   2.923   0.854   1.269  0.5851  0.2830 -0.2875
   11MEL    N02  153   2.986   0.972   1.253 -0.1505 -0.1108 -0.2192
   11MEL    C03  154   3.082   0.974   1.162 -0.6918 -0.2508 -0.0998
   11MEL    N04  155   3.148   1.089   1.151  0.1756 -0.3020  1.2278
   11MEL    N05  156   3.116   0.866   1.082  0.1576  0.6316  0.3848
   11MEL    C06  157   3.041   0.754   1.104  0.2722 -0.7979  0.2793
   11MEL    N07  158   3.064   0.644   1.033  0.6682  0.3575  0.5448
   11MEL    N08  159   2.942   0.743   1.189 -0.1929 -0.1616 -0.4759
   11MEL    H09  160   2.824   0.945   1.417 -0.7626 -0.3311  0.0910
   11MEL    H0A  161   2.790   0.766   1.411  0.0372 -2.0160 -2.1900
   11MEL    H0B  162   3.133   1.174   1.215 -0.6514  0.7427  2.5237
   11MEL    H0C  163   3.223   1.072   1.085  1.0057  2.3385  1.8042
   11MEL    H0D  164   3.000   0.565   1.030  1.4865 -0.8837  1.8103
   11MEL    H0E  165   3.137   0.640   0.963 -1.3264 -0.5381 -1.3061
   12MEL    N00  166   0.176   2.102   1.305 -0.0574 -0.0369 -0.0370
   12MEL    C01  167   0.084   2.099   1.400  0.4446 -0.0480 -0.7066
   12MEL    N02  168   0.025   1.984   1.419 -0.4969  0.7607 -0.7047
   12MEL    C03  169  -0.057   1.979   1.523  0.4666  0.0304 -0.3551
   12MEL    N04  170  -0.128   1.856   1.545 -0.4657 -0.2221 -0.1887
   12MEL    N05  171  -0.095   2.082   1.603  0.0710  0.0938 -0.0309
   12MEL    C06  172  -0.031   2.201   1.573  1.1971  0.0251 -0.1766
   12MEL    N07  173  -0.052   2.309   1.649  0.0498 -0.4164  0.2963
   12MEL    N08  174   0.061   2.207   1.470 -0.2842  0.5329  0.3597
   12MEL    H09  175   0.203   2.013   1.254 -1.1056 -0.0431  1.6503
   12MEL    H0A  176   0.223   2.190   1.289 -1.4564  1.4864 -0.0045
   12MEL    H0B  177  -0.118   1.783   1.470  0.8071  0.2919  1.9479
   12MEL    H0C  178  -0.204   1.846   1.606 -0.5427  0.1276  0.0545
   12MEL    H0D  179   0.001   2.401   1.636  0.9905 -0.6876 -1.2608
   12MEL    H0E  180  -0.138   2.304   1.707  0.3129 -1.6574 -0.0919
   13MEL    N00  181   2.507   0.473   1.931 -0.6729  0.0426  0.0793
   13MEL    C01  182   2.420   0.485   2.032  0.6194  0.0397  0.0147
   13MEL    N02  183   2.355   0.605   2.045  0.8643 -0.6725 -0.6487
   13MEL    C03  184   2.259   0.606   2.141 -0.6142  0.0665  0.3300
   13MEL    N04  185   2.184   0.719   2.158 -0.0475  0.2865 -0.4202
   13MEL    N05  186   2.228   0.500   2.223 -0.8099 -0.2472  0.2219
   13MEL    C06  187   2.302   0.386   2.208 -0.0695 -0.1894  0.7279
   13MEL    N07  188   2.271   0.279   2.284  0.1290 -0.1282  0.6519
   13MEL    N08  189   2.400   0.378   2.112 -0.0483 -0.0414  0.3965
   13MEL    H09  190   2.538   0.551   1.878 -0.1379 -1.3665  2.2724
   13MEL    H0A  191   2.550   0.383   1.926  1.5541 -1.3610  1.7490
   13MEL    H0B  192   2.208   0.797   2.096 -1.8765 -1.8400  1.2825
   13MEL    H0C  193   2.091   0.721   2.197 -0.5165  0.3816  2.9335
   13MEL    H0D  194   2.345   0.203   2.307  1.5943 -3.4687 -0.0628
   13MEL    H0E  195   2.182   0.279   2.335 -0.2264  0.4527 -1.3906
   14MEL    N00  196   2.008   1.727   2.025  0.4366  0.2704 -0.2313
   14MEL    C01  197   2.113   1.730   1.944  0.3820 -0.1277  0.2159
   14MEL    N02  198   2.175   1.615   1.921  0.3016 -0.0978  0.0756
   14MEL    C03  199   2.274   1.628   1.830 -0.1639 -0.1156 -0.1937
   14MEL    N04  200   2.341   1.519   1.792 -0.6334 -0.2545  0.6434
   14MEL    N05  201   2.312   1.737   1.760 -0.1132 -0.1490 -0.1400
   14MEL    C06  202   2.235   1.847   1.791 -1.1252 -0.1046 -0.5618
   14MEL    N07  203   2.272   1.954   1.721 -0.4789  0.2406  1.0940
   14MEL    N08  204   2.136   1.849   1.881  0.8414  0.4131  0.3819
   14MEL    H09  205   1.968   1.634   2.052 -0.0762  2.0222 -0.1745
   14MEL    H0A  206   1.949   1.806   2.051 -0.1510 -1.1884 -1.4012
   14MEL    H0B  207   2.322   1.434   1.841  0.8313 -1.0262  0.0603
   14MEL    H0C  208   2.415   1.533   1.728 -2.6300  0.4937 -4.5850
   14MEL    H0D  209   2.224   2.043   1.732 -2.8985  1.1001 -0.6350
   14MEL    H0E  210   2.351   1.954   1.654  0.6162  0.0784  1.0190
   15MEL    N00  211   2.521   0.876   2.016  0.2220 -0.3489  0.0091
   15MEL    C01  212   2.622   0.880   1.926 -0.1190  0.3628  0.7114
   15MEL    N02  213   2.687   0.992   1.912  0.1783 -0.5535  0.0265
   15MEL    C03  214   2.791   0.989   1.831  1.1308  0.2146 -0.2732
   15MEL    N04  215   2.863   1.100   1.819  0.0990 -0.1763 -0.5252
   15MEL    N05  216   2.833   0.880   1.761  0.4925 -0.5224  0.3531
   15MEL    C06  217   2.752   0.772   1.780  0.2404 -0.1928 -0.1031
   15MEL    N07  218   2.777   0.662   1.710  0.3854 -0.4200  0.1585
   15MEL    N08  219   2.642   0.766   1.864 -0.1354 -0.7141 -0.3626
   15MEL    H09  220   2.484   0.968   2.051 -0.1424  1.8852 -1.3816
   15MEL    H0A  221   2.470   0.790   2.031  1.4148  0.1038 -0.9951
   15MEL    H0B  222   2.830   1.184   1.862 -0.3073 -0.8844 -1.9634
   15MEL    H0C  223   2.953   1.107   1.769  0.9169 -2.8701 -0.8421
   15MEL    H0D  224   2.712   0.590   1.712  2.0664  2.2074 -0.2292
   15MEL    H0E  225   2.870   0.648   1.656  1.7391  1.5238 -1.4867
   16MEL    N00  226   3.056   2.137   1.935  0.3163  0.1731 -0.6114
   16MEL    C01  227   2.964   2.130   2.035 -0.3430  0.5593 -0.5097
   16MEL    N02  228   2.900   2.012   2.049 -0.1727 -0.6172 -0.0956
   16MEL    C03  229   2.799   2.012   2.134  0.0081 -0.2706 -0.6440
   16MEL    N04  230   2.735   1.897   2.146 -0.4844 -0.3857  0.8011
   16MEL    N05  231   2.749   2.121   2.198 -0.0868  0.0234  0.4030
   16MEL    C06  232   2.826   2.233   2.191  1.1297  0.7875  0.4817
   16MEL    N07  233   2.802   2.342   2.262 -0.7047 -0.4675 -0.1209
   16MEL    N08  234   2.935   2.243   2.108 -0.6516  0.0218 -0.0124
   16MEL    H09  235   3.081   2.056   1.879 -1.9697 -1.7226 -0.0472
   16MEL    H0A  236   3.105   2.231   1.929 -1.5347  0.4554  0.6824
   16MEL    H0B  237   2.756   1.830   2.073  1.5960 -0.7718  0.2594
   16MEL    H0C  238   2.646   1.893   2.189  2.4969 -0.3501  0.4329
   16MEL    H0D  239   2.864   2.423   2.236  1.2940  1.9714 -0.2189
   16MEL    H0E  240   2.725   2.349   2.329  0.7525 -0.0698  1.4072
   17MEL    N00  241   2.234   1.219   2.616  0.1319  0.5242  0.0824
   17MEL    C01  242   2.137   1.233   2.700  1.0401  0.0818 -0.3020
   17MEL    N02  243   2.082   1.358   2.719 -0.2147  0.9384  0.4714
   17MEL    C03  244   1.986   1.370   2.810  0.0041 -0.3507 -0.8604
   17MEL    N04  245   1.923   1.489   2.817  0.1641 -0.1084  0.0863
   17MEL    N05  246   1.948   1.271   2.896 -0.3870  0.2820  0.6840
   17MEL    C06  247   2.007   1.150   2.875  0.2609 -0.0250 -0.0769
   17MEL    N07  248   1.959   1.043   2.938 -0.0194  0.0088 -0.2052
   17MEL    N08  249   2.103   1.128   2.784  0.4816 -0.1364  0.1574
   17MEL    H09  250   2.264   1.304   2.575  0.0696 -1.4540 -0.9047
   17MEL    H0A  251   2.285   1.131   2.605 -0.3769 -0.4836 -1.8354
   17MEL    H0B  252   1.934   1.552   2.732  0.5284  0.7821  2.0036
   17MEL    H0C  253   1.846   1.497   2.874 -0.7973  2.7628  1.1058
   17MEL    H0D  254   2.004   0.955   2.923 -0.1790  2.3019 -2.5816
   17MEL    H0E  255   1.879   1.041   3.005 -0.8533  0.2466  0.2078
   18MEL    N00  256   2.880   0.256   0.034  0.4500 -0.2803 -0.0671
   18MEL    C01  257   2.977   0.249  -0.062 -0.1774 -0.3974  0.0091
   18MEL    N02  258   3.035   0.129  -0.083 -0.1158 -0.8326 -0.4769
   18MEL    C03  259   3.130   0.140  -0.178 -0.2350  0.1638 -0.1038
   18MEL    N04  260   3.199   0.029  -0.190 -0.2201 -0.2302 -0.7934
   18MEL    N05  261   3.166   0.246  -0.243 -0.4182 -0.0627 -1.1053
   18MEL    C06  262   3.095   0.360  -0.211  0.0925  0.0812  0.4022
   18MEL    N07  263   3.118   0.477  -0.274 -0.2788 -0.1163  0.0614
   18MEL    N08  264   2.988   0.361  -0.129 -0.1438 -0.3478  0.2580
   18MEL    H09  265   2.857   0.168   0.079 -4.0170 -0.5171  1.2007
   18MEL    H0A  266   2.856   0.353   0.063 -3.3525  2.0799  0.9299
   18MEL    H0B  267   3.178  -0.045  -0.123 -0.1809 -3.5817 -0.8165
   18MEL    H0C  268   3.293   0.045  -0.236 -1.5229  1.1007 -0.7547
   18MEL    H0D  269   3.052   0.551  -0.278 -3.3749 -3.6014 -1.9086
   18MEL    H0E  270   3.193   0.478  -0.347  0.0683 -2.1400  1.7818
   19MEL    N00  271   0.263   1.600   0.032 -1.4132  0.3840  0.0588
   19MEL    C01  272   0.362   1.602  -0.055 -0.3925  0.4111  0.2526
   19MEL    N02  273   0.415   1.724  -0.068  1.0587 -0.1489  0.5469
   19MEL    C03  274   0.510   1.732  -0.168  0.2488  0.3063 -0.5809
   19MEL    N04  275   0.572   1.845  -0.172  0.0773  0.2323 -0.4875
   19MEL    N05  276   0.557   1.632  -0.242  0.3499  0.4922 -1.0374
   19MEL    C06  277   0.494   1.513  -0.219  0.2014  0.3748  0.1227
   19MEL    N07  278   0.525   1.398  -0.282  0.0253 -0.0214 -0.4969
   19MEL    N08  279   0.394   1.495  -0.128 -0.2672 -0.5627  1.5031
   19MEL    H09  280   0.225   1.684   0.078 -0.3854 -2.2658  2.2880
   19MEL    H0A  281   0.218   1.511   0.043  1.8843 -1.6672 -0.7613
   19MEL    H0B  282   0.553   1.914  -0.107  0.0209 -2.1922  0.5447
   19MEL    H0C  283   0.646   1.859  -0.237 -2.0982 -2.4188 -3.7569
   19MEL    H0D  284   0.473   1.313  -0.268 -0.0872 -0.5175  0.2012
   19MEL    H0E  285   0.607   1.392  -0.345  0.9963  1.0965 -1.4414
   20MEL    N00  286   2.754   0.595   2.639  0.0495 -0.0452  0.1804
   20MEL    C01  287   2.661   0.594   2.736  0.5531  0.2899  0.1412
   20MEL    N02  288   2.603   0.474   2.770  0.0392 -0.0713  0.1694
   20MEL    C03  289   2.497   0.488   2.856 -0.5153 -0.3695 -0.0151
   20MEL    N04  290   2.427   0.377   2.888 -0.5606 -0.1183 -0.3521
   20MEL    N05  291   2.453   0.609   2.901  0.3203  0.1600 -0.4045
   20MEL    C06  292   2.527   0.714   2.868  0.4293 -0.0614 -0.1896
   20MEL    N07  293   2.485   0.832   2.921 -0.5650 -0.1523 -0.0930
   20MEL    N08  294   2.642   0.713   2.791  0.7898 -0.0137 -0.1562
   20MEL    H09  295   2.789   0.518   2.587 -3.2517  3.1957  1.0244
   20MEL    H0A  296   2.796   0.678   2.603 -1.2121  0.8768 -0.6808
   20MEL    H0B  297   2.445   0.298   2.826  2.3203 -0.5609 -1.9645
   20MEL    H0C  298   2.335   0.403   2.925 -2.1615  0.7046  1.2407
   20MEL    H0D  299   2.548   0.911   2.904  2.7249  1.0543 -0.1069
   20MEL    H0E  300   2.404   0.859   2.983  3.5488 -2.0437 -0.0800
   21MEL    N00  301   3.091   1.272   0.634  0.0315  0.9788  0.0509
   21MEL    C01  302   2.989   1.264   0.718 -0.3440  0.2479 -0.4639
   21MEL    N02  303   2.906   1.373   0.719  0.5021 -0.3577 -0.0484
   21MEL    C03  304   2.807   1.364   0.811  0.0805 -0.1241  0.4024
   21MEL    N04  305   2.724   1.469   0.838  1.1040 -0.2746 -0.6848
   21MEL    N05  306   2.787   1.264   0.901 -0.1166  0.5458 -0.0685
   21MEL    C06  307   2.877   1.161   0.894 -0.3502  0.0735 -0.5340
   21MEL    N07  308   2.845   1.052   0.975  0.5721 -0.1262  0.4740
   21MEL    N08  309   2.983   1.156   0.801 -0.2146 -0.4580  0.7657
   21MEL    H09  310   3.120   1.359   0.593  0.8044  0.6150  1.9653
   21MEL    H0A  311   3.151   1.188   0.622  1.1533 -2.2347 -3.2437
   21MEL    H0B  312   2.724   1.543   0.770  1.3710  3.0472  2.5029
   21MEL    H0C  313   2.647   1.467   0.904  1.8364  2.1054 -0.1510
   21MEL    H0D  314   2.905   0.975   0.983 -0.3698  0.1399 -1.5292
   21MEL    H0E  315   2.745   1.033   1.015 -0.2613 -1.1475 -1.0460
   22MEL    N00  316   2.614   0.260   0.676 -0.7307  0.2573 -0.3830
   22MEL    C01  317   2.711   0.250   0.590  0.0674  0.0028 -0.7451
   22MEL    N02  318   2.774   0.132   0.573  0.8518 -1.0157 -0.8333
   22MEL    C03  319   2.868   0.140   0.479  0.4730  0.0239  0.1338
   22MEL    N04  320   2.937   0.028   0.463  0.3978  0.8093 -0.0578
   22MEL    N05  321   2.911   0.247   0.420  0.6477  0.3766 -0.5502
   22MEL    C06  322   2.837   0.362   0.441 -0.8155  0.0290 -0.1063
   22MEL    N07  323   2.863   0.465   0.363  0.6432 -0.0722 -0.0769
   22MEL    N08  324   2.733   0.365   0.530 -0.0401 -0.1086  0.1435
   22MEL    H09  325   2.580   0.175   0.719  4.7627 -1.1465  0.6788
   22MEL    H0A  326   2.581   0.356   0.700 -0.7901  0.5516 -2.4585
   22MEL    H0B  327   2.921  -0.044   0.535 -1.0232  3.7401  2.9978
   22MEL    H0C  328   3.024   0.046   0.418 -1.8688 -0.9103 -0.5525
   22MEL    H0D  329   2.808   0.551   0.382 -0.8697 -0.3763  0.3891
   22MEL    H0E  330   2.949   0.460   0.307 -0.5106  1.4230  0.7026
   23MEL    N00  331   3.089   1.644   0.685  0.1845 -0.4221  0.8432
   23MEL    C01  332   3.202   1.642   0.605 -0.2426  0.8938  0.6612
   23MEL    N02  333   3.279   1.752   0.580 -0.7693  0.3142 -0.3162
   23MEL    C03  334   3.380   1.734   0.497  0.0076  0.5380  0.1004
   23MEL    N04  335   3.472   1.834   0.481 -0.4462 -0.3039 -0.2593
   23MEL    N05  336   3.409   1.626   0.424 -0.5117  0.0984 -0.3470
   23MEL    C06  337   3.323   1.521   0.447  0.1133  0.0599 -0.3885
   23MEL    N07  338   3.336   1.414   0.380 -0.2970  0.0757  0.3436
   23MEL    N08  339   3.216   1.523   0.536  1.3160 -0.6163  0.1849
   23MEL    H09  340   3.041   1.726   0.716  0.4167 -0.8490 -1.3823
   23MEL    H0A  341   3.034   1.555   0.689 -0.7383 -1.9096 -1.4782
   23MEL    H0B  342   3.467   1.929   0.526 -0.5892  0.5633  2.2106
   23MEL    H0C  343   3.562   1.806   0.439 -0.6149  0.2533 -0.2530
   23MEL    H0D  344   3.268   1.345   0.389  2.7070 -0.0408 -0.6049
   23MEL    H0E  345   3.410   1.397   0.313 -0.0445  1.1594  1.4833
   24MEL    N00  346   0.476   0.629   0.622 -0.2652 -0.7242  1.0341
   24MEL    C01  347   0.387   0.623   0.718 -0.4727  0.3036  0.1572
   24MEL    N02  348   0.324   0.505   0.726  0.5603  0.3922  0.6233
   24MEL    C03  349   0.228   0.499   0.821  0.4970 -0.4571  0.3779
   24MEL    N04  350   0.173   0.383   0.824  0.2991  0.0917  0.0697
   24MEL    N05  351   0.191   0.599   0.901  0.0469  0.0394 -0.1602
   24MEL    C06  352   0.262   0.715   0.883 -0.0938 -0.1508 -0.1399
   24MEL    N07  353   0.228   0.819   0.962 -0.5730  0.3559 -0.4416
   24MEL    N08  354   0.368   0.731   0.801 -0.5639  0.1547  0.3800
   24MEL    H09  355   0.515   0.553   0.570 -0.5207  2.0517  0.7292
   24MEL    H0A  356   0.512   0.724   0.602  2.5945 -1.1239 -0.2272
   24MEL    H0B  357   0.201   0.302   0.756  0.0560 -3.6528 -0.9313
   24MEL    H0C  358   0.094   0.375   0.885  0.5570  0.6021 -0.8591
   24MEL    H0D  359   0.294   0.901   0.970  0.2749 -0.2841 -0.1395
   24MEL    H0E  360   0.141   0.819   1.017  0.8693  0.1568 -0.7304
   25MEL    N00  361   2.830   1.255   1.292  0.7537  0.1682 -0.3364
   25MEL    C01  362   2.728   1.261   1.376 -0.1005 -0.4954  0.5343
   25MEL    N02  363   2.660   1.374   1.389 -0.0392 -0.1634 -0.4543
   25MEL    C03  364   2.553   1.368   1.475  0.3194  0.3704  0.1292
   25MEL    N04  365   2.477   1.479   1.482  0.5903  0.0617  0.2193
   25MEL    N05  366   2.517   1.262   1.555  0.0457  0.3940 -0.3871
   25MEL    C06  367   2.597   1.153   1.538  0.2867 -0.6291  0.0911
   25MEL    N07  368   2.575   1.038   1.601  0.5613  0.6413  0.1262
   25MEL    N08  369   2.703   1.151   1.450 -0.3220  0.0827 -0.4605
   25MEL    H09  370   2.857   1.344   1.245 -1.1379 -1.5042  2.9980
   25MEL    H0A  371   2.882   1.164   1.285  1.4522 -0.5639  1.6950
   25MEL    H0B  372   2.485   1.551   1.408 -1.4807 -0.3995 -2.0807
   25MEL    H0C  373   2.398   1.480   1.544 -0.9113 -1.0109 -0.9150
   25MEL    H0D  374   2.647   0.970   1.592  2.1863  0.2981 -3.3351
   25MEL    H0E  375   2.489   1.025   1.653  1.5846  0.7544 -3.2441
   26MEL    N00  376   2.306   0.285   1.362 -0.3941  0.3779 -0.6275
   26MEL    C01  377   2.401   0.279   1.271 -0.4253  0.2854  1.1280
   26MEL    N02  378   2.463   0.160   1.268  0.5865  0.2038 -0.1128
   26MEL    C03  379   2.571   0.159   1.190 -0.0114  0.3286 -0.3228
   26MEL    N04  380   2.631   0.042   1.174  0.3880 -0.1540  0.5607
   26MEL    N05  381   2.621   0.258   1.116  0.6408  0.3230  0.6587
   26MEL    C06  382   2.554   0.375   1.136  0.2641 -0.0364 -0.4732
   26MEL    N07  383   2.595   0.476   1.066 -0.2998  0.7253  0.0251
   26MEL    N08  384   2.436   0.391   1.203 -0.0823 -0.0095  0.0403
   26MEL    H09  385   2.272   0.195   1.388  1.8365  0.3572 -0.8717
   26MEL    H0A  386   2.260   0.372   1.389 -1.6951 -0.9558 -1.1561
   26MEL    H0B  387   2.616  -0.035   1.247 -0.3253 -2.4619  1.2704
   26MEL    H0C  388   2.715   0.043   1.116 -2.6904  1.1675  0.4489
   26MEL    H0D  389   2.547   0.567   1.062  0.8094  1.5235 -2.2669
   26MEL    H0E  390   2.686   0.464   1.024  2.4427  4.7687  1.3858
   27MEL    N00  391   2.817   1.610   1.362 -0.3357 -0.2500 -0.3799
   27MEL    C01  392   2.909   1.613   1.269  0.8653 -0.4419 -0.1537
   27MEL    N02  393   2.977   1.735   1.261 -0.5069 -0.2416 -0.0375
   27MEL    C03  394   3.075   1.732   1.171 -0.1074 -0.3153  0.3260
   27MEL    N04  395   3.150   1.840   1.159  0.0252  0.1705  0.2368
   27MEL    N05  396   3.099   1.632   1.089 -0.1609 -0.4115  0.4174
   27MEL    C06  397   3.029   1.518   1.098 -0.8290  0.6911 -0.1580
   27MEL    N07  398   3.063   1.411   1.024  0.1460  0.0887 -0.5596
   27MEL    N08  399   2.931   1.502   1.192  0.2920 -0.4898 -0.0815
   27MEL    H09  400   2.794   1.689   1.419  1.9843 -0.4775 -2.8879
   27MEL    H0A  401   2.756   1.527   1.380  0.9957 -0.7163  0.3607
   27MEL    H0B  402   3.123   1.909   1.226  2.3718 -2.0462 -1.8499
   27MEL    H0C  403   3.250   1.844   1.122  1.9804  0.7836 -1.1716
   27MEL    H0D  404   3.007   1.327   1.032 -0.5717  1.1470 -3.2924
   27MEL    H0E  405   3.152   1.405   0.974  1.2829 -0.3027  1.5454
   28MEL    N00  406   0.199   0.627   1.296  0.0419 -0.1110 -0.1530
   28MEL    C01  407   0.096   0.634   1.382  0.2681  0.0282 -0.6978
   28MEL    N02  408   0.029   0.514   1.401 -0.0795  0.0859 -0.3560
   28MEL    C03  409  -0.072   0.521   1.498  0.0497  0.3151  0.2224
   28MEL    N04  410  -0.154   0.413   1.519  0.0035 -0.2448  0.5742
   28MEL    N05  411  -0.110   0.632   1.564  0.5535 -0.4263 -0.4072
   28MEL    C06  412  -0.029   0.736   1.540 -0.1342  0.0950 -0.6961
   28MEL    N07  413  -0.064   0.850   1.609  0.7997  0.4646 -0.2514
   28MEL    N08  414   0.075   0.746   1.454 -0.1573  0.0274  0.5295
   28MEL    H09  415   0.238   0.534   1.271 -0.4209  0.1357  1.6224
   28MEL    H0A  416   0.257   0.708   1.272  0.7050 -1.6018 -0.3093
   28MEL    H0B  417  -0.142   0.337   1.451  1.0403 -0.5658  1.2894
   28MEL    H0C  418  -0.237   0.410   1.575  1.6935 -0.0807 -0.6832
   28MEL    H0D  419  -0.007   0.928   1.595 -2.0979 -1.7431 -0.1332
   28MEL    H0E  420  -0.153   0.859   1.671 -1.5907  1.0399  0.5054
   29MEL    N00  421   2.539   1.263   1.969  0.2183 -0.5684  0.3626
   29MEL    C01  422   2.431   1.262   2.048 -0.0106 -0.6480  0.7755
   29MEL    N02  423   2.366   1.378   2.067  0.3847  0.1708 -0.1300
   29MEL    C03  424   2.274   1.383   2.162 -0.2268 -0.7158 -0.6049
   29MEL    N04  425   2.199   1.490   2.180  0.3765 -0.1440 -0.3804
   29MEL    N05  426   2.236   1.268   2.231 -0.5880  0.4474  0.3852
   29MEL    C06  427   2.304   1.157   2.203 -0.0814  0.0684 -0.1548
   29MEL    N07  428   2.270   1.036   2.256  0.4526 -0.9430 -0.0290
   29MEL    N08  429   2.409   1.146   2.116  0.4510  0.7461 -0.3084
   29MEL    H09  430   2.575   1.347   1.928 -1.2675  1.0959 -0.8398
   29MEL    H0A  431   2.590   1.173   1.962 -1.2726 -0.6398  0.5875
   29MEL    H0B  432   2.224   1.574   2.126 -2.4236  1.3694  3.0510
   29MEL    H0C  433   2.116   1.504   2.232 -0.4621 -3.5641 -0.6183
   29MEL    H0D  434   2.329   0.951   2.236  0.2697 -0.7661  0.3095
   29MEL    H0E  435   2.187   1.027   2.321  0.3410 -0.7075  0.6061
   30MEL    N00  436   2.008   0.231   2.019 -0.0645  0.2795  0.0046
   30MEL    C01  437   2.113   0.225   1.931  0.1622 -0.3146 -0.1405
   30MEL    N02  438   2.182   0.111   1.908 -0.5092 -0.1443  0.0263
   30MEL    C03  439   2.289   0.114   1.829  0.4665 -0.0974 -0.1255
   30MEL    N04  440   2.362   0.003   1.807 -0.4700 -0.1520  0.2968
   30MEL    N05  441   2.318   0.226   1.757  0.4180  0.1135 -0.1760
   30MEL    C06  442   2.244   0.338   1.780  0.1200 -0.5270 -1.3334
   30MEL    N07  443   2.275   0.446   1.709 -0.2932  0.1105 -0.1975
   30MEL    N08  444   2.135   0.342   1.863 -0.2968  0.0706  0.2146
   30MEL    H09  445   1.971   0.143   2.058 -1.2448  0.2555  0.5656
   30MEL    H0A  446   1.946   0.311   2.009 -0.4478  0.9881  2.4361
   30MEL    H0B  447   2.345  -0.083   1.860 -0.2517 -0.5810 -2.7637
   30MEL    H0C  448   2.447  -0.001   1.750 -2.3129 -0.7756  0.3674
   30MEL    H0D  449   2.231   0.537   1.729 -0.3883 -0.4573  0.0705
   30MEL    H0E  450   2.355   0.435   1.644  0.6853  0.1600  0.7249
   31MEL    N00  451   2.532   1.627   2.011  0.4459 -0.3270  0.0691
   31MEL    C01  452   2.636   1.623   1.925 -0.1776  0.3498  0.3564
   31MEL    N02  453   2.710   1.735   1.913  0.7307 -0.5628  0.1595
   31MEL    C03  454   2.819   1.725   1.832 -0.0186 -0.0685 -0.7884
   31MEL    N04  455   2.896   1.834   1.825 -0.9450 -0.1434 -0.8458
   31MEL    N05  456   2.857   1.615   1.767  0.1670  0.0255 -0.0278
   31MEL    C06  457   2.772   1.517   1.784  0.1918  0.3288 -0.3601
   31MEL    N07  458   2.796   1.410   1.715 -0.3427 -0.9772 -0.3809
   31MEL    N08  459   2.664   1.508   1.860 -0.4307 -0.5561 -0.1290
   31MEL    H09  460   2.499   1.717   2.046  2.9887 -0.8583 -1.9126
   31MEL    H0A  461   2.472   1.548   2.027  2.1192  2.7670  1.3284
   31MEL    H0B  462   2.880   1.912   1.886  0.4366 -2.6086 -0.1112
   31MEL    H0C  463   2.993   1.824   1.793 -1.1244 -1.1186 -1.7750
   31MEL    H0D  464   2.726   1.339   1.708 -0.4867  1.1597  1.2311
   31MEL    H0E  465   2.877   1.402   1.652 -0.1935  2.7068  0.3637
   32MEL    N00  466   3.064   0.610   1.958 -0.2980 -0.4539  0.1805
   32MEL    C01  467   2.967   0.616   2.051 -0.5036 -0.1718 -0.2565
   32MEL    N02  468   2.897   0.500   2.062  0.0623  0.1759 -0.5377
   32MEL    C03  469   2.786   0.510   2.143  0.6459  0.2891  0.5971
   32MEL    N04  470   2.707   0.403   2.141  0.7908 -0.5372  0.5655
   32MEL    N05  471   2.755   0.619   2.210  0.9706 -0.5711 -0.2595
   32MEL    C06  472   2.831   0.730   2.187 -0.5183 -0.1934  0.2166
   32MEL    N07  473   2.804   0.845   2.253  0.8677 -0.1999  0.4630
   32MEL    N08  474   2.946   0.732   2.114  0.4009 -0.2882 -0.0888
   32MEL    H09  475   3.088   0.521   1.916 -0.8151 -1.1276  0.8492
   32MEL    H0A  476   3.116   0.694   1.929  1.0810 -2.0683  0.1830
   32MEL    H0B  477   2.733   0.322   2.090  0.5894 -3.9644  0.8214
   32MEL    H0C  478   2.612   0.405   2.184 -0.6959 -0.6168  1.2118
   32MEL    H0D  479   2.878   0.912   2.244 -0.6385  0.5946 -0.8534
   32MEL    H0E  480   2.731   0.831   2.320  2.5805 -4.2925  0.8260
   33MEL    N00  481   2.237   1.970   2.631 -0.3532 -0.2702  0.7571
   33MEL    C01  482   2.136   1.976   2.708  0.5249  0.1491 -0.1428
   33MEL    N02  483   2.086   2.104   2.727  0.2621 -0.7204 -0.1493
   33MEL    C03  484   1.992   2.115   2.823 -0.0682 -0.4332  0.1129
   33MEL    N04  485   1.926   2.230   2.834 -0.4182  0.0376 -0.3679
   33MEL    N05  486   1.952   2.011   2.895  0.5810  0.3831  0.1443
   33MEL    C06  487   2.013   1.891   2.875 -0.0533  0.3512  0.1302
   33MEL    N07  488   1.969   1.777   2.926  0.1083 -0.3048 -0.0016
   33MEL    N08  489   2.103   1.866   2.786 -0.1865  0.0538  0.9359
   33MEL    H09  490   2.266   2.060   2.586  1.0638 -1.6664 -1.0806
   33MEL    H0A  491   2.277   1.880   2.599  0.7797  0.4572 -0.1161
   33MEL    H0B  492   1.951   2.309   2.772  1.8176  0.2005  3.0774
   33MEL    H0C  493   1.831   2.233   2.874 -0.8197 -0.3414 -1.4690
   33MEL    H0D  494   2.019   1.689   2.905 -1.4685 -0.6036  0.5975
   33MEL    H0E  495   1.890   1.783   2.986  1.7526 -0.1966 -1.0724
   34MEL    N00  496   2.888   0.976   0.039  0.7074  0.0129 -0.4555
   34MEL    C01  497   2.987   0.987  -0.052  0.2249  0.6427 -0.4525
   34MEL    N02  498   3.048   0.867  -0.079 -0.4475 -0.2100  0.6207
   34MEL    C03  499   3.145   0.872  -0.173 -0.6959  0.4234 -0.3107
   34MEL    N04  500   3.219   0.760  -0.197 -0.3372 -0.3465 -0.4039
   34MEL    N05  501   3.173   0.983  -0.245  0.4667  0.6115 -0.2890
   34MEL    C06  502   3.103   1.095  -0.209 -0.2193  0.2263  0.2382
   34MEL    N07  503   3.135   1.199  -0.282 -0.1175 -0.7122 -0.0229
   34MEL    N08  504   3.004   1.101  -0.114  0.0244 -0.6394 -0.2574
   34MEL    H09  505   2.841   0.886   0.053 -0.8347 -1.1768  1.5486
   34MEL    H0A  506   2.831   1.067   0.041  0.3755 -0.7704  1.9176
   34MEL    H0B  507   3.207   0.675  -0.142  3.2488  0.3913 -0.3491
   34MEL    H0C  508   3.296   0.759  -0.263  0.7182 -0.4433 -2.6654
   34MEL    H0D  509   3.083   1.285  -0.261 -1.9527  0.4274  1.5318
   34MEL    H0E  510   3.212   1.208  -0.349 -0.7908 -0.4143 -1.7422
   35MEL    N00  511   0.262   0.097   0.043  0.2330  0.9225  0.4127
   35MEL    C01  512   0.365   0.098  -0.043  0.0267 -0.2958 -0.2796
   35MEL    N02  513   0.429   0.221  -0.062  0.4361 -0.5977 -0.2713
   35MEL    C03  514   0.516   0.217  -0.160  0.4415  0.2803 -0.8282
   35MEL    N04  515   0.593   0.320  -0.170 -0.1191 -0.2356 -0.1690
   35MEL    N05  516   0.540   0.109  -0.237  0.6629  0.1315  0.3110
   35MEL    C06  517   0.478  -0.009  -0.200  0.7054  0.6784  0.1492
   35MEL    N07  518   0.519  -0.118  -0.265  0.3900  0.1402  0.4964
   35MEL    N08  519   0.373  -0.013  -0.119  0.0198  0.2204 -0.2531
   35MEL    H09  520   0.236   0.175   0.101  1.3295 -0.9476 -0.9866
   35MEL    H0A  521   0.204   0.015   0.049  1.6301  1.7456 -0.8893
   35MEL    H0B  522   0.585   0.395  -0.105 -0.7926 -1.1814 -1.3509
   35MEL    H0C  523   0.673   0.313  -0.231 -0.3831  0.5804  1.4366
   35MEL    H0D  524   0.473  -0.209  -0.245  0.5049  1.7103 -0.6042
   35MEL    H0E  525   0.600  -0.115  -0.333  0.2561 -3.6684 -1.0506
   36MEL    N00  526   2.758   1.372   2.635  0.9312  0.5057  0.3685
   36MEL    C01  527   2.657   1.363   2.723 -0.9264  0.6032  0.5122
   36MEL    N02  528   2.590   1.245   2.739  0.5104 -0.0452 -0.2523
   36MEL    C03  529   2.488   1.251   2.827  0.3207  0.5039 -0.1340
   36MEL    N04  530   2.410   1.140   2.831 -1.0854 -0.0754  0.3083
   36MEL    N05  531   2.452   1.353   2.908  0.4029 -0.0879 -0.0189
   36MEL    C06  532   2.531   1.457   2.892  0.0879  0.0084  0.7392
   36MEL    N07  533   2.514   1.567   2.969  0.1204 -0.4203  0.5378
   36MEL    N08  534   2.634   1.470   2.800  0.0855 -0.2419  0.5220
   36MEL    H09  535   2.783   1.285   2.592  1.1652  1.6896  0.9134
   36MEL    H0A  536   2.793   1.462   2.606 -1.3767 -5.1067 -0.6053
   36MEL    H0B  537   2.432   1.070   2.763 -0.4795 -1.4883 -0.4119
   36MEL    H0C  538   2.322   1.126   2.873  0.6241  0.5881  0.3028
   36MEL    H0D  539   2.581   1.640   2.968 -1.5428  1.2110  0.3316
   36MEL    H0E  540   2.422   1.577   3.022  1.1906 -0.1927  1.3056
   37MEL    N00  541   3.114   1.986   0.598 -0.3090 -0.5182  0.3030
   37MEL    C01  542   3.015   1.998   0.687 -0.9278 -0.9498  0.1876
   37MEL    N02  543   2.963   2.125   0.704  0.2192  0.7685 -0.2697
   37MEL    C03  544   2.872   2.121   0.804  0.4674 -0.0768  0.5077
   37MEL    N04  545   2.809   2.239   0.823  0.4394  0.0123  0.0298
   37MEL    N05  546   2.835   2.008   0.876  0.4465 -0.2634 -0.1411
   37MEL    C06  547   2.904   1.896   0.850  0.1713 -0.0586 -0.3454
   37MEL    N07  548   2.893   1.775   0.919 -0.2649 -0.4378 -0.1606
   37MEL    N08  549   3.003   1.892   0.765 -0.1798 -0.0549 -0.4504
   37MEL    H09  550   3.134   2.075   0.551 -1.2263 -1.8008  0.4353
   37MEL    H0A  551   3.162   1.900   0.580 -1.7104  0.2668 -1.0121
   37MEL    H0B  552   2.829   2.303   0.749 -1.4070 -0.6907 -0.5091
   37MEL    H0C  553   2.736   2.244   0.892 -2.3820 -1.0371  0.0029
   37MEL    H0D  554   2.951   1.697   0.901 -1.5058 -0.9419  0.7375
   37MEL    H0E  555   2.816   1.775   0.992  0.6755 -0.3882 -1.1409
   38MEL    N00  556   2.573   0.999   0.715  0.5407  0.1834  0.4370
   38MEL    C01  557   2.672   1.008   0.616  0.2764  0.2084 -0.0140
   38MEL    N02  558   2.742   0.895   0.607  0.3664  0.6338 -0.1848
   38MEL    C03  559   2.845   0.906   0.520  0.3050  0.2594 -0.2902
   38MEL    N04  560   2.912   0.793   0.511  0.4815  0.2615 -0.6701
   38MEL    N05  561   2.880   1.018   0.446  0.4155  0.5300 -0.3848
   38MEL    C06  562   2.786   1.118   0.453  0.1053  0.1509 -0.1160
   38MEL    N07  563   2.807   1.221   0.370 -0.6387  0.5655 -0.1133
   38MEL    N08  564   2.680   1.120   0.536 -0.7538 -0.0258  0.0257
   38MEL    H09  565   2.550   0.915   0.760 -2.6011  1.3494 -0.1516
   38MEL    H0A  566   2.506   1.077   0.733  0.5625 -1.7253 -0.1280
   38MEL    H0B  567   2.886   0.719   0.575  2.3743 -1.5113 -1.2400
   38MEL    H0C  568   3.004   0.798   0.472  1.0729  1.3344 -1.3024
   38MEL    H0D  569   2.743   1.295   0.357  3.2962  1.2122 -0.9582
   38MEL    H0E  570   2.899   1.223   0.317  0.3841  0.8013  1.0244
   39MEL    N00  571   3.125   0.110   0.687 -0.0019 -0.2723 -0.2706
   39MEL    C01  572   3.215   0.117   0.595 -1.2193 -0.1357  0.3532
   39MEL    N02  573   3.285   0.230   0.595 -0.3110  0.3523  0.0829
   39MEL    C03  574   3.390   0.229   0.504 -0.2123 -0.0920  0.1563
   39MEL    N04  575   3.461   0.342   0.497  0.2055 -0.1490  0.4675
   39MEL    N05  576   3.419   0.125   0.424 -0.0495 -0.8569 -0.2004
   39MEL    C06  577   3.340   0.014   0.440  0.0942  0.3124  0.4246
   39MEL    N07  578   3.369  -0.101   0.374  0.5273  0.5420  0.0621
   39MEL    N08  579   3.234   0.009   0.522 -0.1245 -0.6602  0.2245
   39MEL    H09  580   3.107   0.190   0.747  0.1504 -1.4913 -0.6789
   39MEL    H0A  581   3.083   0.017   0.706 -0.2251  1.8426  1.5193
   39MEL    H0B  582   3.456   0.416   0.564  0.6044  0.0107 -0.8130
   39MEL    H0C  583   3.549   0.334   0.462  0.1229 -0.2724  0.6660
   39MEL    H0D  584   3.303  -0.177   0.370 -1.4117  1.7804  0.9864
   39MEL    H0E  585   3.450  -0.106   0.312 -1.0648  1.1645 -1.6009
   40MEL    N00  586   0.499   1.383   0.646  0.4096  0.0819 -0.1474
   40MEL    C01  587   0.401   1.369   0.736 -0.2000 -0.3509 -0.4757
   40MEL    N02  588   0.334   1.250   0.737  0.5558  0.0893  0.4233
   40MEL    C03  589   0.234   1.255   0.824  0.0171 -0.1062  0.3865
   40MEL    N04  590   0.148   1.159   0.840 -0.4502  0.2195 -0.2682
   40MEL    N05  591   0.186   1.364   0.886 -0.2352 -0.4948 -0.1026
   40MEL    C06  592   0.261   1.472   0.877 -0.9912  0.1899  0.6403
   40MEL    N07  593   0.217   1.582   0.938 -0.1976 -0.2038 -0.1566
   40MEL    N08  594   0.377   1.481   0.812  0.7326  0.3667  0.5131
   40MEL    H09  595   0.536   1.303   0.590 -2.1938  1.3406 -1.6011
   40MEL    H0A  596   0.545   1.471   0.636 -0.7849  0.9417  1.0871
   40MEL    H0B  597   0.160   1.080   0.766  1.3487 -0.2722  0.5701
   40MEL    H0C  598   0.054   1.173   0.885 -0.3529  1.0676  0.6611
   40MEL    H0D  599   0.278   1.664   0.932 -1.4962  0.8152 -1.5266
   40MEL    H0E  600   0.123   1.597   0.978  2.3245  0.9674 -0.7908
   41MEL    N00  601   2.828   2.028   1.328  0.0088  0.2854  0.3925
   41MEL    C01  602   2.716   2.021   1.404  0.1768  0.3723 -0.7251
   41MEL    N02  603   2.645   2.135   1.415  0.2380 -0.3815 -0.1361
   41MEL    C03  604   2.543   2.128   1.492  0.3313 -0.1706 -0.3539
   41MEL    N04  605   2.467   2.241   1.507  0.0280  1.1369  0.5767
   41MEL    N05  606   2.500   2.021   1.564 -0.2859  0.6649  0.2636
   41MEL    C06  607   2.576   1.910   1.547 -0.1035  0.3162 -0.2663
   41MEL    N07  608   2.549   1.801   1.610 -0.4471  0.5157 -0.3967
   41MEL    N08  609   2.687   1.904   1.471 -0.2644  0.6729  0.1949
   41MEL    H09  610   2.860   2.114   1.279 -4.7622  0.5996 -1.8086
   41MEL    H0A  611   2.878   1.936   1.322  2.6150  0.0137  1.0670
   41MEL    H0B  612   2.479   2.313   1.439 -1.9161  2.7556  2.0210
   41MEL    H0C  613   2.382   2.236   1.559  1.2143 -1.5094  1.0545
   41MEL    H0D  614   2.614   1.730   1.609  0.9247  1.8018 -1.2011
   41MEL    H0E  615   2.473   1.788   1.681 -1.9432 -0.7215  3.2433
   42MEL    N00  616   2.294   0.984   1.367  0.5018  0.0044  0.3562
   42MEL    C01  617   2.391   0.985   1.273 -0.6169 -0.0790 -0.6406
   42MEL    N02  618   2.465   0.871   1.259 -0.6541 -0.7552  0.9224
   42MEL    C03  619   2.567   0.874   1.170  0.3509 -0.1444  0.1578
   42MEL    N04  620   2.640   0.763   1.159 -0.0490  0.0662  0.0304
   42MEL    N05  621   2.596   0.986   1.101 -0.3711  0.2302 -0.4847
   42MEL    C06  622   2.520   1.094   1.128  0.1589 -0.1892 -0.4223
   42MEL    N07  623   2.548   1.214   1.070  0.0941  0.1775 -0.6579
   42MEL    N08  624   2.413   1.101   1.215  0.1586 -0.7050  0.2925
   42MEL    H09  625   2.274   0.894   1.412 -0.1591  0.4750  1.3918
   42MEL    H0A  626   2.227   1.061   1.387 -0.7332  0.9177  0.4435
   42MEL    H0B  627   2.622   0.691   1.229 -0.9836 -3.6599 -0.4097
   42MEL    H0C  628   2.729   0.767   1.104 -1.0352  0.4774 -2.9085
   42MEL    H0D  629   2.485   1.295   1.098 -0.1570  1.4702  2.8683
   42MEL    H0E  630   2.632   1.231   1.011 -0.0896 -1.9356 -2.0753
   43MEL    N00  631   2.832   0.127   1.372  0.6731 -0.2864 -0.7885
   43MEL    C01  632   2.918   0.129   1.274 -0.7068  0.1525  0.4762
   43MEL    N02  633   2.978   0.244   1.262  0.0290 -0.0188 -0.3811
   43MEL    C03  634   3.075   0.248   1.172 -0.4287 -0.3823 -0.1360
   43MEL    N04  635   3.142   0.360   1.175  0.0015  0.1121  0.1593
   43MEL    N05  636   3.112   0.149   1.092 -0.9505  0.0376 -0.2355
   43MEL    C06  637   3.044   0.032   1.121  0.4823  0.1881  0.2196
   43MEL    N07  638   3.078  -0.080   1.052 -0.5182  0.7275  0.3252
   43MEL    N08  639   2.939   0.020   1.202  0.7734 -0.3719 -0.8506
   43MEL    H09  640   2.794   0.215   1.405  0.0488  0.5963  1.1312
   43MEL    H0A  641   2.790   0.051   1.414  1.2444  3.3763  0.5926
   43MEL    H0B  642   3.123   0.438   1.236 -0.3508 -0.8554 -0.8964
   43MEL    H0C  643   3.229   0.381   1.125 -1.4199 -3.1151 -0.3074
   43MEL    H0D  644   3.018  -0.158   1.062 -2.5742 -0.2059  2.9637
   43MEL    H0E  645   3.165  -0.086   0.993 -1.0391 -1.7390 -1.0178
   44MEL    N00  646   0.195   1.376   1.293 -0.0309 -0.7362 -0.0738
   44MEL    C01  647   0.110   1.361   1.388  0.1053 -0.3201  0.0782
   44MEL    N02  648   0.043   1.247   1.392 -0.1399  0.3325 -0.0895
   44MEL    C03  649  -0.048   1.244   1.493 -0.2073 -0.5507  0.7259
   44MEL    N04  650  -0.104   1.123   1.501 -0.1293  0.4421 -0.0924
   44MEL    N05  651  -0.079   1.344   1.579 -0.5418 -0.1806 -0.1111
   44MEL    C06  652  -0.009   1.461   1.555  0.2026 -0.7694 -0.1202
   44MEL    N07  653  -0.036   1.566   1.634 -0.0283  0.5796  0.1816
   44MEL    N08  654   0.092   1.472   1.465 -0.0895 -0.1740  0.9840
   44MEL    H09  655   0.229   1.297   1.239 -0.9983 -0.8502  1.4215
   44MEL    H0A  656   0.241   1.472   1.286 -0.8860  2.1777  2.9132
   44MEL    H0B  657  -0.090   1.056   1.425 -2.2298  0.0868 -1.5541
   44MEL    H0C  658  -0.181   1.104   1.561  1.0653  0.0249  0.6012
   44MEL    H0D  659   0.012   1.653   1.613 -1.7694  0.1981 -0.6597
   44MEL    H0E  660  -0.113   1.568   1.693  1.2660  0.2827 -2.7044
   45MEL    N00  661   2.541   2.010   1.953 -0.3041 -0.1056 -0.0256
   45MEL    C01  662   2.451   2.003   2.047 -0.0118  0.4035 -0.2384
   45MEL    N02  663   2.386   2.115   2.075  0.0365  0.2682  0.3432
   45MEL    C03  664   2.283   2.095   2.157  0.0691 -0.4017  0.1821
   45MEL    N04  665   2.208   2.206   2.171 -0.0810  0.1995  0.0973
   45MEL    N05  666   2.260   1.986   2.229  0.1142  0.3763  0.5354
   45MEL    C06  667   2.336   1.881   2.198  0.4215  0.6551 -0.6678
   45MEL    N07  668   2.297   1.764   2.258  0.2157  0.7661 -0.1675
   45MEL    N08  669   2.439   1.880   2.106  0.2544  0.0449 -0.1988
   45MEL    H09  670   2.570   2.108   1.924 -0.8331  4.2575 -1.1669
   45MEL    H0A  671   2.598   1.934   1.924  0.9814 -1.6049 -0.2568
   45MEL    H0B  672   2.223   2.289   2.108 -1.1199  2.9340  1.5006
   45MEL    H0C  673   2.132   2.199   2.236 -1.1752 -0.6829  0.1870
   45MEL    H0D  674   2.369   1.694   2.256 -3.0444  1.9484  0.9247
   45MEL    H0E  675   2.212   1.750   2.317 -0.9430 -2.3891  1.1656
   46MEL    N00  676   2.002   1.008   2.014 -0.2429  1.0257  0.7809
   46MEL    C01  677   2.102   1.004   1.923  0.2801  1.1474 -0.0306
   46MEL    N02  678   2.173   0.884   1.918  0.7504  0.1552 -0.4650
   46MEL    C03  679   2.277   0.880   1.832  0.0201 -0.0952 -0.0576
   46MEL    N04  680   2.348   0.772   1.823 -0.3319  0.2514 -0.1393
   46MEL    N05  681   2.310   0.988   1.750 -0.4139  0.3254 -0.4318
   46MEL    C06  682   2.239   1.101   1.770  0.4494 -0.0737 -0.2298
   46MEL    N07  683   2.275   1.205   1.692 -0.5764 -0.0614  0.1648
   46MEL    N08  684   2.136   1.116   1.854  0.0689 -0.1741  0.1660
   46MEL    H09  685   1.965   0.923   2.051  1.1825  1.8531  2.0872
   46MEL    H0A  686   1.945   1.091   2.029 -2.8495  1.7468 -0.5032
   46MEL    H0B  687   2.337   0.682   1.889  1.6020  0.0748  2.4713
   46MEL    H0C  688   2.436   0.781   1.782 -2.1249  1.3365  1.2918
   46MEL    H0D  689   2.225   1.289   1.695  3.7179  0.7389  2.1663
   46MEL    H0E  690   2.356   1.193   1.632  0.0360 -0.9471  0.2374
   47MEL    N00  691   2.530   0.150   2.013 -0.4723 -0.5369 -0.3058
   47MEL    C01  692   2.636   0.137   1.933 -0.2686 -0.4116 -0.0150
   47MEL    N02  693   2.698   0.250   1.912  0.0603  0.1027  0.1176
   47MEL    C03  694   2.801   0.234   1.828 -0.6757  0.7054  0.6562
   47MEL    N04  695   2.878   0.337   1.833 -0.1679 -0.7531  0.0787
   47MEL    N05  696   2.848   0.117   1.781  0.0345  0.0683  0.2834
   47MEL    C06  697   2.769   0.013   1.805 -0.0404 -0.8240  0.2542
   47MEL    N07  698   2.795  -0.102   1.748  0.1827 -0.0188  0.0568
   47MEL    N08  699   2.656   0.017   1.877 -0.1354  0.2411 -0.1175
   47MEL    H09  700   2.497   0.238   2.057 -1.2171  0.8357 -0.4619
   47MEL    H0A  701   2.481   0.067   2.042 -0.7359  0.4121  1.1443
   47MEL    H0B  702   2.838   0.413   1.886 -0.5809  0.8019 -1.0586
   47MEL    H0C  703   2.974   0.333   1.809 -1.3765 -0.5478 -3.1781
   47MEL    H0D  704   2.748  -0.192   1.764  2.4595  0.5974 -2.7975
   47MEL    H0E  705   2.878  -0.115   1.683  0.8223  0.8249 -0.9899
   48MEL    N00  706   3.058   1.347   1.963 -0.0622  0.7021 -0.4530
   48MEL    C01  707   2.962   1.354   2.052 -0.0291  0.0597  0.2461
   48MEL    N02  708   2.895   1.236   2.072 -0.5802  0.6154  0.1713
   48MEL    C03  709   2.796   1.241   2.159  0.1033  0.1397  0.6407
   48MEL    N04  710   2.725   1.129   2.182 -1.0090  0.3399  0.1512
   48MEL    N05  711   2.762   1.353   2.227 -0.7009  0.2378 -0.6345
   48MEL    C06  712   2.825   1.467   2.189 -0.0255 -0.3634 -0.2899
   48MEL    N07  713   2.781   1.580   2.250 -0.5348  0.3080 -0.0879
   48MEL    N08  714   2.943   1.470   2.118  0.1366 -0.1038 -0.7939
   48MEL    H09  715   3.088   1.251   1.938 -2.6424  0.8141  2.6188
   48MEL    H0A  716   3.115   1.433   1.944 -0.6514  1.8414  0.9842
   48MEL    H0B  717   2.741   1.046   2.123 -1.7200 -2.9961  0.2216
   48MEL    H0C  718   2.645   1.131   2.244 -1.0983  0.1477  3.0794
   48MEL    H0D  719   2.843   1.663   2.256  3.5442 -2.5849 -2.4300
   48MEL    H0E  720   2.703   1.581   2.316  1.7166  1.6404 -2.7311
   49MEL    N00  721   0.162   0.497   2.653 -0.1937 -0.0231  0.3656
   49MEL    C01  722   0.063   0.505   2.739 -0.6112 -0.2410 -0.2354
   49MEL    N02  723  -0.000   0.623   2.751 -0.2741  0.1874  0.7841
   49MEL    C03  724  -0.107   0.616   2.839 -0.1365 -0.4083  0.2423
   49MEL    N04  725  -0.183   0.727   2.855 -0.6712  0.1020 -0.1829
   49MEL    N05  726  -0.152   0.509   2.903  0.4654 -0.3431 -0.7930
   49MEL    C06  727  -0.076   0.399   2.879  0.0996  0.7505 -0.2904
   49MEL    N07  728  -0.117   0.287   2.940  0.0402 -1.1335 -0.6734
   49MEL    N08  729   0.034   0.388   2.802  0.6677  0.5720 -0.2581
   49MEL    H09  730   0.195   0.588   2.618  2.0820 -0.3737  1.5784
   49MEL    H0A  731   0.202   0.411   2.620 -3.1555 -1.6420  1.8779
   49MEL    H0B  732  -0.159   0.796   2.787 -1.2334  2.0926  0.4251
   49MEL    H0C  733  -0.281   0.726   2.876  0.1452  1.3640 -0.6517
   49MEL    H0D  734  -0.053   0.207   2.918  1.7083 -0.6101  0.7336
   49MEL    H0E  735  -0.203   0.287   2.997  1.1431 -0.2034  0.7099
   50MEL    N00  736   0.777   1.765   0.039 -0.4302  0.1731  0.1153
   50MEL    C01  737   0.872   1.748  -0.047 -0.0981 -0.4376 -0.2688
   50MEL    N02  738   0.940   1.633  -0.052  0.0780 -0.3851 -0.3620
   50MEL    C03  739   1.029   1.628  -0.153  1.5031  0.8483 -0.1052
   50MEL    N04  740   1.104   1.521  -0.160  0.0844 -0.3137  0.5282
   50MEL    N05  741   1.065   1.729  -0.236 -0.0943  0.8400 -0.4185
   50MEL    C06  742   1.000   1.845  -0.207 -0.3617 -0.5337  0.1340
   50MEL    N07  743   1.037   1.954  -0.275 -0.4663  0.5867  0.4765
   50MEL    N08  744   0.900   1.859  -0.115  0.3279 -0.0823  0.3965
   50MEL    H09  745   0.756   1.684   0.095  1.1351  2.0212  1.3196
   50MEL    H0A  746   0.733   1.856   0.060 -2.0767  2.6869  0.5250
   50MEL    H0B  747   1.109   1.450  -0.084  0.6505 -0.4997  0.3047
   50MEL    H0C  748   1.181   1.526  -0.220 -1.2598 -0.6005 -0.7854
   50MEL    H0D  749   1.004   2.047  -0.255  2.5226  3.1814  0.0423
   50MEL    H0E  750   1.113   1.954  -0.344  0.3741  3.7898 -0.7848
   51MEL    N00  751   1.316   0.884   0.043  0.1900 -0.0648  0.7548
   51MEL    C01  752   1.408   0.890  -0.051  0.1129  0.3088 -0.1848
   51MEL    N02  753   1.482   1.001  -0.055  0.3005 -0.3021  0.8621
   51MEL    C03  754   1.580   1.002  -0.152  0.5902  0.1821 -0.6405
   51MEL    N04  755   1.660   1.109  -0.149 -0.1045  0.0285  0.0294
   51MEL    N05  756   1.618   0.889  -0.219  0.1362 -0.3233  0.0666
   51MEL    C06  757   1.533   0.786  -0.207 -0.0980  0.1819 -0.1502
   51MEL    N07  758   1.560   0.680  -0.279  0.2368  0.4152 -0.3618
   51MEL    N08  759   1.430   0.773  -0.122  0.4028  0.1748 -0.5051
   51MEL    H09  760   1.289   0.975   0.080 -1.7397 -0.7566  0.9579
   51MEL    H0A  761   1.262   0.802   0.043 -0.3718 -0.0106 -1.2689
   51MEL    H0B  762   1.647   1.177  -0.067 -0.0384 -1.5686  3.0229
   51MEL    H0C  763   1.746   1.101  -0.197 -3.3358  1.2040  2.7262
   51MEL    H0D  764   1.496   0.597  -0.275  2.2133  0.0350  0.8387
   51MEL    H0E  765   1.642   0.662  -0.327 -1.4397  0.6672  0.5066
   52MEL    N00  766   0.680   2.121   2.645  0.6983  0.2748  0.7230
   52MEL    C01  767   0.588   2.110   2.739  0.3407 -0.0408  0.0810
   52MEL    N02  768   0.526   1.991   2.746 -0.1445  0.0685  0.3954
   52MEL    C03  769   0.416   1.990   2.826  0.0434 -0.0218  0.8083
   52MEL    N04  770   0.339   1.882   2.833 -0.6361  0.3336 -0.1164
   52MEL    N05  771   0.375   2.092   2.904  0.4713 -0.6549 -0.7540
   52MEL    C06  772   0.448   2.211   2.888 -0.0669 -0.4844 -0.6106
   52MEL    N07  773   0.422   2.329   2.946  0.4316  0.8612 -0.1224
   52MEL    N08  774   0.557   2.221   2.806  0.1335 -0.5785 -0.5704
   52MEL    H09  775   0.703   2.038   2.587 -0.6871  0.5043  0.9587
   52MEL    H0A  776   0.722   2.206   2.632 -1.1358 -1.4941  4.2193
   52MEL    H0B  777   0.358   1.795   2.776  0.1127 -0.9207  0.3197
   52MEL    H0C  778   0.248   1.886   2.884  2.2338  0.5185 -2.2359
   52MEL    H0D  779   0.486   2.406   2.932 -0.2325 -0.8677 -0.8625
   52MEL    H0E  780   0.347   2.331   3.014  1.9015 -0.8388  0.1136
   53MEL    N00  781   1.008   0.507   0.633 -0.0513  0.5139  0.1533
   53MEL    C01  782   0.919   0.513   0.723  0.9000 -0.8073 -0.8108
   53MEL    N02  783   0.851   0.628   0.738 -0.7927  1.2412 -0.1277
   53MEL    C03  784   0.751   0.625   0.828  0.2891 -0.0474 -0.8376
   53MEL    N04  785   0.670   0.731   0.844  0.6009  0.2811  0.2068
   53MEL    N05  786   0.725   0.522   0.907  0.1327  0.0214 -0.1619
   53MEL    C06  787   0.797   0.409   0.882 -0.7406 -0.0301  0.0861
   53MEL    N07  788   0.760   0.288   0.943  1.0096 -0.8463  0.6021
   53MEL    N08  789   0.897   0.404   0.797 -0.5616 -0.1938  0.2767
   53MEL    H09  790   1.042   0.594   0.593 -0.2697  0.7819  0.7467
   53MEL    H0A  791   1.048   0.413   0.620 -0.3311 -2.0300  0.5399
   53MEL    H0B  792   0.680   0.805   0.767 -1.7377 -1.3322 -1.5464
   53MEL    H0C  793   0.580   0.715   0.891 -0.2401 -1.3038 -0.3622
   53MEL    H0D  794   0.830   0.212   0.941  0.8496 -2.4338  0.2964
   53MEL    H0E  795   0.678   0.285   1.008  1.7944 -1.5697  0.9363
   54MEL    N00  796   0.524   1.741   0.738 -0.0595 -1.2809  0.3532
   54MEL    C01  797   0.612   1.741   0.637  0.4655 -0.2941  0.0192
   54MEL    N02  798   0.689   1.635   0.620  0.2597  0.4711  0.3666
   54MEL    C03  799   0.770   1.632   0.518 -0.5431 -0.1266  0.6145
   54MEL    N04  800   0.826   1.513   0.489  0.0243  1.0246  0.2436
   54MEL    N05  801   0.790   1.735   0.431  0.3956 -0.0136 -0.2579
   54MEL    C06  802   0.726   1.846   0.464  0.1581  0.3412 -0.2450
   54MEL    N07  803   0.752   1.950   0.386  0.3509 -0.1520  0.4940
   54MEL    N08  804   0.635   1.856   0.567 -0.2156  0.7365 -0.0416
   54MEL    H09  805   0.501   1.656   0.790  1.7854  0.2604  2.4180
   54MEL    H0A  806   0.470   1.823   0.748  1.3369 -2.5924  1.1866
   54MEL    H0B  807   0.826   1.442   0.567  2.1736  0.0803  0.9997
   54MEL    H0C  808   0.901   1.511   0.420 -1.0845 -0.4033 -0.4331
   54MEL    H0D  809   0.687   2.029   0.398  0.3026  2.8066  1.3146
   54MEL    H0E  810   0.831   1.947   0.317  0.2220  1.6328  0.1713
   55MEL    N00  811   0.997   0.856   0.688  0.0807 -0.1207 -0.0318
   55MEL    C01  812   1.101   0.857   0.610 -0.7747  0.0240 -0.2387
   55MEL    N02  813   1.172   0.967   0.605 -0.1461 -0.3135 -0.8505
   55MEL    C03  814   1.276   0.963   0.517 -0.2183  0.6591 -0.0920
   55MEL    N04  815   1.356   1.067   0.529  0.4482 -0.2840 -0.1180
   55MEL    N05  816   1.317   0.854   0.448 -0.1213 -0.4989  0.3283
   55MEL    C06  817   1.235   0.752   0.458 -0.7085 -0.1422 -0.6604
   55MEL    N07  818   1.276   0.645   0.390  0.3856  0.3955  0.5752
   55MEL    N08  819   1.129   0.745   0.541 -0.7315  0.0717  0.4320
   55MEL    H09  820   0.966   0.937   0.733  0.7173 -1.4325 -1.7351
   55MEL    H0A  821   0.941   0.774   0.704  2.0454  0.5859  0.6414
   55MEL    H0B  822   1.338   1.141   0.595 -2.2877  0.0041 -0.5924
   55MEL    H0C  823   1.440   1.052   0.478  1.0844  1.0947  0.3499
   55MEL    H0D  824   1.225   0.560   0.374 -0.5037 -1.4528  1.2865
   55MEL    H0E  825   1.370   0.648   0.344 -0.0412  1.8462 -1.1538
   56MEL    N00  826   1.567   2.105   0.671 -0.1418  0.3624 -0.0717
   56MEL    C01  827   1.457   2.103   0.749  0.7401  0.2189  0.3593
   56MEL    N02  828   1.387   1.990   0.753 -0.1166  0.2892  0.5411
   56MEL    C03  829   1.280   2.000   0.832  0.1480  0.4974  0.8147
   56MEL    N04  830   1.201   1.899   0.842  0.2085  0.2189  0.1052
   56MEL    N05  831   1.233   2.111   0.889  0.4708  0.0479 -1.1134
   56MEL    C06  832   1.310   2.217   0.880 -0.0907 -0.4986 -0.3667
   56MEL    N07  833   1.279   2.324   0.955  0.0405  0.5364 -0.5774
   56MEL    N08  834   1.429   2.221   0.816  0.2187 -0.5686  0.1168
   56MEL    H09  835   1.602   2.018   0.627 -1.4471  3.9090  0.1284
   56MEL    H0A  836   1.614   2.191   0.672 -2.2602 -0.1598  1.3234
   56MEL    H0B  837   1.223   1.816   0.787  1.1593 -0.1628  0.6104
   56MEL    H0C  838   1.106   1.909   0.869 -1.5212 -0.9586  1.1083
   56MEL    H0D  839   1.342   2.404   0.950 -2.2025 -0.4955  0.1237
   56MEL    H0E  840   1.197   2.325   1.018  0.0977  0.5989 -0.0548
   57MEL    N00  841   0.756   0.502   1.273 -0.2370 -0.2173 -0.1770
   57MEL    C01  842   0.650   0.490   1.360  0.2140 -0.2618  0.1429
   57MEL    N02  843   0.584   0.606   1.373  0.0171 -0.6280 -0.0752
   57MEL    C03  844   0.485   0.599   1.464  0.3194 -0.4949  0.1407
   57MEL    N04  845   0.409   0.711   1.469 -0.5060  0.3915 -0.1867
   57MEL    N05  846   0.441   0.494   1.536  0.2906  0.4359  0.1518
   57MEL    C06  847   0.517   0.383   1.511  0.2322 -0.3399  0.7175
   57MEL    N07  848   0.491   0.276   1.585  0.1346  0.0929 -0.5031
   57MEL    N08  849   0.621   0.375   1.425  0.2237  0.1594 -0.2711
   57MEL    H09  850   0.791   0.598   1.247 -2.8164 -0.6836  0.3954
   57MEL    H0A  851   0.801   0.412   1.246  0.4618 -0.7336  3.0294
   57MEL    H0B  852   0.413   0.784   1.398 -0.2569  0.2439  0.7148
   57MEL    H0C  853   0.327   0.720   1.534 -0.2812 -0.1781  1.6958
   57MEL    H0D  854   0.547   0.195   1.584  2.1859 -1.4039  1.9331
   57MEL    H0E  855   0.406   0.282   1.645 -2.4712  1.1490  0.6009
   58MEL    N00  856   0.187   1.746   1.386  0.1968  0.0528 -0.1132
   58MEL    C01  857   0.284   1.745   1.295 -0.2793  0.4449  0.0724
   58MEL    N02  858   0.351   1.626   1.286  0.0412 -0.5392  0.5427
   58MEL    C03  859   0.439   1.628   1.183  0.0799  0.3225  0.2895
   58MEL    N04  860   0.518   1.523   1.175 -1.0044  0.2080 -0.7331
   58MEL    N05  861   0.467   1.732   1.097 -0.5929 -0.3397  0.3815
   58MEL    C06  862   0.405   1.848   1.132  0.6502  0.2190 -0.1938
   58MEL    N07  863   0.422   1.951   1.052 -0.5380  0.5031  0.5077
   58MEL    N08  864   0.310   1.860   1.226  0.3537 -0.2644  0.5188
   58MEL    H09  865   0.163   1.657   1.438  0.7526 -2.5251 -0.8506
   58MEL    H0A  866   0.141   1.836   1.415  0.1050 -1.4235  0.1153
   58MEL    H0B  867   0.507   1.452   1.251 -0.7463  1.2288  3.1230
   58MEL    H0C  868   0.599   1.536   1.116  0.1775 -0.4373 -0.3113
   58MEL    H0D  869   0.387   2.045   1.071  0.7301  0.4290  1.7166
   58MEL    H0E  870   0.482   1.943   0.970 -2.0865  0.8789  3.4241
   59MEL    N00  871   0.723   0.874   1.363  0.0852 -0.2265  0.3046
   59MEL    C01  872   0.816   0.879   1.267  0.6538  0.0840 -0.4143
   59MEL    N02  873   0.872   0.997   1.251 -0.3735 -0.5667 -0.6490
   59MEL    C03  874   0.981   0.997   1.168  0.7673 -0.0171 -0.0671
   59MEL    N04  875   1.053   1.104   1.163 -0.5159  0.1466  0.1225
   59MEL    N05  876   1.024   0.892   1.092  0.2555  0.7460  0.9089
   59MEL    C06  877   0.954   0.779   1.114 -0.7787 -0.1276  0.1030
   59MEL    N07  878   0.984   0.674   1.039  0.0778 -0.1443  0.6468
   59MEL    N08  879   0.851   0.768   1.203 -0.3592  1.2518  0.1704
   59MEL    H09  880   0.696   0.963   1.401  1.5579 -2.0800 -0.1886
   59MEL    H0A  881   0.680   0.777   1.376  1.9309 -0.6010 -1.7215
   59MEL    H0B  882   1.036   1.176   1.233 -0.4916  2.4512  0.2944
   59MEL    H0C  883   1.134   1.102   1.103  0.0850  2.6721 -3.4831
   59MEL    H0D  884   0.927   0.590   1.043 -0.2035  1.2275 -0.7662
   59MEL    H0E  885   1.072   0.672   0.982  1.0193  1.3661  0.9682
   60MEL    N00  886   1.259   2.099   1.283  0.1861 -0.0249  0.2813
   60MEL    C01  887   1.168   2.107   1.386 -0.3821 -0.4503 -0.3582
   60MEL    N02  888   1.103   1.994   1.402  0.6957 -0.1602  0.3160
   60MEL    C03  889   0.996   2.002   1.483  0.4734 -0.3805  0.3692
   60MEL    N04  890   0.917   1.892   1.476  0.2995 -0.3079 -0.5394
   60MEL    N05  891   0.951   2.106   1.557 -0.2887 -0.0544  0.1503
   60MEL    C06  892   1.032   2.211   1.540 -0.3350 -0.0355  0.5223
   60MEL    N07  893   0.974   2.319   1.593 -0.1619  0.1827  1.2012
   60MEL    N08  894   1.136   2.226   1.455  0.3448  0.0846  0.0865
   60MEL    H09  895   1.291   2.003   1.251  1.7575 -0.0779 -1.1266
   60MEL    H0A  896   1.316   2.177   1.260 -1.7974  0.7358  1.1822
   60MEL    H0B  897   0.935   1.823   1.407 -2.3038  3.4088 -0.1711
   60MEL    H0C  898   0.831   1.898   1.527  1.2963 -2.1774  0.0044
   60MEL    H0D  899   1.031   2.412   1.588 -0.0017  1.8322  0.4380
   60MEL    H0E  900   0.882   2.316   1.637  0.9539  0.7488 -0.7255
   61MEL    N00  901   0.451   0.497   1.963  0.1228  0.7668  0.0894
   61MEL    C01  902   0.346   0.503   2.048 -0.1265 -0.5297 -0.1129
   61MEL    N02  903   0.279   0.617   2.059  0.1058 -0.4912  0.5877
   61MEL    C03  904   0.183   0.615   2.162 -0.2445 -0.2715 -0.1397
   61MEL    N04  905   0.108   0.724   2.180 -0.0410 -0.2148  0.4737
   61MEL    N05  906   0.147   0.510   2.238 -0.2198 -0.2722 -0.4951
   61MEL    C06  907   0.208   0.398   2.205 -0.3664 -0.0373  0.4833
   61MEL    N07  908   0.177   0.296   2.277 -0.1606 -0.5691  0.3921
   61MEL    N08  909   0.311   0.391   2.115 -0.1758 -0.9603  0.6107
   61MEL    H09  910   0.489   0.584   1.919  2.7017 -0.5798  1.3993
   61MEL    H0A  911   0.511   0.418   1.955 -1.8579  2.5307 -1.0593
   61MEL    H0B  912   0.120   0.804   2.110 -1.1017 -0.7931  0.1621
   61MEL    H0C  913   0.016   0.708   2.224 -0.0765 -1.5014  0.0600
   61MEL    H0D  914   0.223   0.211   2.253  1.5495  1.7181 -3.0016
   61MEL    H0E  915   0.104   0.305   2.352  1.9032  1.2365 -2.2319
   62MEL    N00  916   3.077   1.752   2.040  0.2166 -0.1311  0.0967
   62MEL    C01  917   3.165   1.740   1.931 -0.1284  0.4947 -0.2206
   62MEL    N02  918   3.225   1.617   1.921 -0.6143 -0.0010  0.0581
   62MEL    C03  919   3.328   1.612   1.831 -0.0308 -0.0554  0.1812
   62MEL    N04  920   3.399   1.495   1.810 -0.5227 -0.4140  0.2162
   62MEL    N05  921   3.359   1.716   1.747  0.6359  0.1663 -0.9068
   62MEL    C06  922   3.287   1.828   1.769  0.2499 -0.5968 -0.5235
   62MEL    N07  923   3.319   1.942   1.701 -0.7783 -0.4550  0.8670
   62MEL    N08  924   3.189   1.849   1.857  0.4094  0.4194  0.3369
   62MEL    H09  925   3.051   1.664   2.084  2.9106  0.3090 -2.5494
   62MEL    H0A  926   3.028   1.839   2.056  3.6424 -1.3403  0.4896
   62MEL    H0B  927   3.385   1.418   1.871  1.0111  0.0286 -0.0749
   62MEL    H0C  928   3.486   1.507   1.753  0.5384  1.2001 -0.9409
   62MEL    H0D  929   3.268   2.027   1.721 -0.3855  2.2179 -1.9451
   62MEL    H0E  930   3.400   1.947   1.633  0.8345 -0.0251 -0.6583
   63MEL    N00  931   0.430   0.851   2.042 -0.4190 -0.0349  0.3929
   63MEL    C01  932   0.536   0.850   1.962  0.5234 -0.6257 -0.0902
   63MEL    N02  933   0.602   0.967   1.961 -0.1737 -0.5094  0.6166
   63MEL    C03  934   0.702   0.966   1.869  0.8605  0.3245 -0.2735
   63MEL    N04  935   0.763   1.086   1.844  0.5761 -0.4480 -0.1808
   63MEL    N05  936   0.730   0.864   1.781 -0.1777  0.6674 -0.3741
   63MEL    C06  937   0.657   0.750   1.801 -0.1938 -0.7459  0.6130
   63MEL    N07  938   0.672   0.651   1.708 -0.0133 -0.4107 -0.3836
   63MEL    N08  939   0.556   0.744   1.887  0.0301  0.0636  0.0821
   63MEL    H09  940   0.394   0.937   2.080 -0.0143 -0.7700 -1.5597
   63MEL    H0A  941   0.373   0.765   2.049  0.0681  2.5742 -0.5356
   63MEL    H0B  942   0.744   1.162   1.919 -1.4175  0.6301  0.8129
   63MEL    H0C  943   0.835   1.090   1.772 -1.4962 -0.0633  3.4565
   63MEL    H0D  944   0.611   0.569   1.698 -1.2369  0.2792  2.2589
   63MEL    H0E  945   0.752   0.666   1.644  0.3336 -0.1265 -0.8316
   64MEL    N00  946   0.957   2.071   1.974  0.8118 -0.2913 -0.0781
   64MEL    C01  947   0.860   2.081   2.060 -0.9107  0.9710 -0.4277
   64MEL    N02  948   0.787   1.971   2.083 -0.0952  0.1204 -0.0674
   64MEL    C03  949   0.681   1.984   2.163  0.3780  0.2343 -0.1105
   64MEL    N04  950   0.605   1.877   2.184 -0.2059  0.1099  0.2390
   64MEL    N05  951   0.649   2.096   2.232 -0.2277  0.0234  0.2622
   64MEL    C06  952   0.732   2.201   2.206  0.4121  0.1713 -0.5811
   64MEL    N07  953   0.713   2.310   2.281 -0.4041  0.2089 -0.8988
   64MEL    N08  954   0.832   2.203   2.116 -0.2835 -0.0989 -0.5923
   64MEL    H09  955   0.982   1.983   1.932 -1.2476 -0.0699 -0.8969
   64MEL    H0A  956   1.008   2.158   1.951 -0.1373  2.1530 -2.3367
   64MEL    H0B  957   0.623   1.796   2.132  1.3339  1.6735  2.3662
   64MEL    H0C  958   0.522   1.873   2.248 -1.5088  2.0523  0.6212
   64MEL    H0D  959   0.785   2.379   2.269 -1.2841  0.9238  0.2621
   64MEL    H0E  960   0.637   2.331   2.349 -2.2170 -1.4875  3.3508
   65MEL    N00  961   0.178   1.240   2.635 -0.0431 -0.0613 -0.2185
   65MEL    C01  962   0.082   1.249   2.723  0.4709  0.5487  0.3810
   65MEL    N02  963   0.007   1.360   2.728  0.1818  0.3084 -0.4261
   65MEL    C03  964  -0.079   1.365   2.834  0.1133 -0.2660  0.3545
   65MEL    N04  965  -0.164   1.467   2.835  0.5299  0.0233  0.1200
   65MEL    N05  966  -0.111   1.261   2.913 -0.5747 -0.0166 -0.1640
   65MEL    C06  967  -0.045   1.147   2.878  0.0764 -0.4831 -0.7789
   65MEL    N07  968  -0.084   1.032   2.937 -0.3517  0.3062 -0.4320
   65MEL    N08  969   0.059   1.134   2.787 -0.1721 -0.3436 -0.1637
   65MEL    H09  970   0.212   1.329   2.589  2.4462 -0.4505 -0.0968
   65MEL    H0A  971   0.224   1.153   2.624 -0.8343 -2.8532 -3.5834
   65MEL    H0B  972  -0.163   1.546   2.768  0.0856  1.1457 -1.4102
   65MEL    H0C  973  -0.250   1.439   2.880  0.4217 -0.3683  0.1855
   65MEL    H0D  974  -0.023   0.957   2.921 -1.3514  2.6147  0.4112
   65MEL    H0E  975  -0.170   1.018   3.004 -0.2258  1.7168  2.7370
   66MEL    N00  976   0.785   0.245   0.024 -0.2851 -0.1423  0.0230
   66MEL    C01  977   0.893   0.253  -0.055 -0.2703  0.0114 -0.2211
   66MEL    N02  978   0.955   0.142  -0.076  0.0256  0.4789 -0.5008
   66MEL    C03  979   1.050   0.149  -0.170  0.5854 -0.7496 -0.0215
   66MEL    N04  980   1.117   0.036  -0.189 -0.0270  0.6211  0.0079
   66MEL    N05  981   1.095   0.267  -0.230 -0.2608  0.3257  0.5899
   66MEL    C06  982   1.018   0.375  -0.199  1.5685 -0.3506 -0.5715
   66MEL    N07  983   1.037   0.477  -0.284  0.2742 -0.2302  0.4145
   66MEL    N08  984   0.908   0.376  -0.121 -0.5210 -0.2524 -0.2095
   66MEL    H09  985   0.745   0.164   0.068 -5.2450 -0.4123 -1.3535
   66MEL    H0A  986   0.738   0.335   0.041  2.4277 -0.1876  0.4850
   66MEL    H0B  987   1.099  -0.044  -0.129 -0.0503  0.7049  4.5460
   66MEL    H0C  988   1.201   0.047  -0.246 -0.3209 -0.3298  1.1284
   66MEL    H0D  989   0.993   0.567  -0.293 -0.4446  0.1189  1.6700
   66MEL    H0E  990   1.113   0.466  -0.347 -1.5827  1.9938 -1.3139
   67MEL    N00  991   1.298   1.632   0.030 -0.4501  0.3589 -0.3078
   67MEL    C01  992   1.402   1.625  -0.054 -0.4958  0.4163 -0.0781
   67MEL    N02  993   1.470   1.740  -0.070  0.8483 -0.7452  0.1012
   67MEL    C03  994   1.575   1.732  -0.161  0.6241  0.2335 -0.5184
   67MEL    N04  995   1.645   1.842  -0.191  0.5917  0.2269  0.6524
   67MEL    N05  996   1.617   1.622  -0.224  0.1096  0.2603  0.5276
   67MEL    C06  997   1.531   1.517  -0.205 -0.2133 -0.2784 -0.1418
   67MEL    N07  998   1.565   1.406  -0.268 -0.3457 -0.2809  0.4440
   67MEL    N08  999   1.429   1.507  -0.115  0.4908 -0.1554  0.4914
   67MEL    H09 1000   1.275   1.727   0.068 -0.7546  3.3399 -1.5888
   67MEL    H0A 1001   1.249   1.547   0.054 -0.9863  0.4354  0.9225
   67MEL    H0B 1002   1.630   1.922  -0.129  0.2120 -0.2432  0.9977
   67MEL    H0C 1003   1.734   1.830  -0.237 -0.8003 -1.5953  2.5101
   67MEL    H0D 1004   1.509   1.322  -0.250 -1.1725  0.1603 -1.5009
   67MEL    H0E 1005   1.657   1.397  -0.326  2.1973  2.3038 -0.7772
   68MEL    N00 1006   0.679   0.616   2.643 -0.5861  0.1549 -0.3798
   68MEL    C01 1007   0.578   0.620   2.733  0.2083 -0.3570  0.5511
   68MEL    N02 1008   0.510   0.501   2.741 -0.3584  0.2121 -0.3135
   68MEL    C03 1009   0.403   0.503   2.825  0.7373  0.6793 -0.0109
   68MEL    N04 1010   0.356   0.382   2.855 -0.2196 -0.3745 -0.0950
   68MEL    N05 1011   0.360   0.610   2.894 -0.2030 -0.1684  0.5993
   68MEL    C06 1012   0.434   0.722   2.877 -0.0662 -0.3408 -0.0493
   68MEL    N07 1013   0.392   0.828   2.939 -0.1963  0.5374  0.0287
   68MEL    N08 1014   0.546   0.732   2.801  0.0941  0.1155  0.6037
   68MEL    H09 1015   0.702   0.529   2.589 -2.5930  0.8856 -0.0666
   68MEL    H0A 1016   0.721   0.702   2.607 -1.8390 -2.5980  0.6706
   68MEL    H0B 1017   0.378   0.310   2.784 -3.1908 -0.5810 -0.7903
   68MEL    H0C 1018   0.267   0.368   2.897  1.6229 -3.0951  1.4989
   68MEL    H0D 1019   0.453   0.904   2.950 -1.7672 -0.7183 -1.2704
   68MEL    H0E 1020   0.304   0.819   2.997  0.8855 -0.5008  1.2724
   69MEL    N00 1021   1.008   1.228   0.608  0.2478 -0.2594  0.4809
   69MEL    C01 1022   0.919   1.245   0.704 -0.8238  0.2200 -0.4411
   69MEL    N02 1023   0.858   1.365   0.726 -0.0726 -0.2218 -0.2379
   69MEL    C03 1024   0.769   1.364   0.823 -0.3368 -0.6055  0.1092
   69MEL    N04 1025   0.707   1.476   0.834 -0.2809 -0.8567 -0.4767
   69MEL    N05 1026   0.732   1.261   0.900  0.1667  0.4989  0.1077
   69MEL    C06 1027   0.803   1.147   0.876 -1.3505  0.4648 -0.4388
   69MEL    N07 1028   0.770   1.033   0.941 -0.1449 -0.4244 -0.1567
   69MEL    N08 1029   0.895   1.132   0.778 -0.5954  0.1066 -0.1038
   69MEL    H09 1030   1.032   1.317   0.555 -0.9037  1.2697  0.4299
   69MEL    H0A 1031   1.053   1.141   0.597 -0.8474  0.1547 -0.5277
   69MEL    H0B 1032   0.717   1.546   0.763 -0.8219 -2.1097 -0.2736
   69MEL    H0C 1033   0.637   1.488   0.901  0.5680  4.3305 -0.3255
   69MEL    H0D 1034   0.804   0.948   0.907  1.2322  2.6709  0.0546
   69MEL    H0E 1035   0.699   1.044   1.009  0.2903  0.7821 -0.9696
   70MEL    N00 1036   0.504   0.249   0.731  0.4809  0.3085 -0.2354
   70MEL    C01 1037   0.593   0.244   0.632  0.4392 -0.3628  0.1240
   70MEL    N02 1038   0.652   0.122   0.616  0.8706  0.0725  0.3646
   70MEL    C03 1039   0.753   0.127   0.524  0.0032  0.0137  0.0020
   70MEL    N04 1040   0.816   0.013   0.514 -1.0311  0.3926  0.7225
   70MEL    N05 1041   0.801   0.233   0.451  0.0501  0.1885  0.2185
   70MEL    C06 1042   0.729   0.340   0.474  0.1026  0.1552  0.3199
   70MEL    N07 1043   0.760   0.444   0.397 -0.3962 -0.9077  0.1898
   70MEL    N08 1044   0.627   0.357   0.558  0.1322 -0.0166 -0.4243
   70MEL    H09 1045   0.477   0.168   0.790  1.1164 -1.1679  0.3087
   70MEL    H0A 1046   0.458   0.341   0.751 -0.7538 -1.5332  0.2188
   70MEL    H0B 1047   0.805  -0.072   0.576 -3.2580  0.8015  0.5116
   70MEL    H0C 1048   0.902   0.015   0.457  1.0693  0.5711 -1.3295
   70MEL    H0D 1049   0.686   0.516   0.403 -3.2782 -1.6203  1.0952
   70MEL    H0E 1050   0.842   0.450   0.328  2.5716 -1.8144 -3.1975
   71MEL    N00 1051   1.020   1.623   0.695 -0.3847  0.3863  0.8604
   71MEL    C01 1052   1.128   1.627   0.617  0.1517  0.5794 -0.2419
   71MEL    N02 1053   1.182   1.750   0.613 -0.0872 -0.1814  0.6085
   71MEL    C03 1054   1.286   1.758   0.525 -0.2654  0.5863  0.0673
   71MEL    N04 1055   1.341   1.871   0.505 -0.8457 -0.2409  0.4613
   71MEL    N05 1056   1.330   1.653   0.452  0.0466  0.6895  0.2240
   71MEL    C06 1057   1.266   1.532   0.469 -0.4330  0.1277 -0.3856
   71MEL    N07 1058   1.316   1.423   0.410  0.0382  0.9238 -0.4608
   71MEL    N08 1059   1.163   1.515   0.557 -0.0239 -0.5282 -0.1338
   71MEL    H09 1060   0.981   1.705   0.738  1.0378 -1.3857  0.0336
   71MEL    H0A 1061   0.973   1.533   0.706 -0.5239  1.6206 -0.8660
   71MEL    H0B 1062   1.321   1.953   0.563 -0.8721  2.3532 -0.3677
   71MEL    H0C 1063   1.430   1.871   0.454  1.0930 -1.9223 -0.6074
   71MEL    H0D 1064   1.267   1.333   0.428 -0.3772 -4.3802  0.3101
   71MEL    H0E 1065   1.396   1.426   0.349  0.4756  0.6453 -1.5068
   72MEL    N00 1066   1.524   0.604   0.661  0.0099  0.1578 -0.0386
   72MEL    C01 1067   1.433   0.606   0.760 -0.0868  0.3097  0.2147
   72MEL    N02 1068   1.362   0.493   0.767  0.0658  0.0950 -0.3018
   72MEL    C03 1069   1.261   0.508   0.856 -0.7165 -0.8433  0.0148
   72MEL    N04 1070   1.191   0.396   0.871 -0.2190 -0.9863 -0.3201
   72MEL    N05 1071   1.225   0.621   0.923  1.1093  0.4227  0.5404
   72MEL    C06 1072   1.303   0.727   0.901  0.1851  0.5238 -0.5002
   72MEL    N07 1073   1.278   0.841   0.967  0.2671 -0.6806 -0.1401
   72MEL    N08 1074   1.415   0.723   0.826 -0.5229 -0.3251 -0.0508
   72MEL    H09 1075   1.545   0.515   0.611 -0.5263 -1.2490 -3.6889
   72MEL    H0A 1076   1.567   0.696   0.639  1.1415  2.1143 -1.4766
   72MEL    H0B 1077   1.218   0.315   0.813  2.9791  0.1102 -1.8272
   72MEL    H0C 1078   1.096   0.409   0.914 -1.8767 -0.2430 -0.9603
   72MEL    H0D 1079   1.339   0.925   0.962 -2.5072 -0.6560 -2.4646
   72MEL    H0E 1080   1.187   0.852   1.016 -1.4103 -1.6780 -0.1440
   73MEL    N00 1081   0.727   1.259   1.287 -0.1519  0.4738 -0.5923
   73MEL    C01 1082   0.626   1.248   1.374 -0.0148  0.0518  0.1943
   73MEL    N02 1083   0.559   1.363   1.391 -0.3712  0.2019 -0.4370
   73MEL    C03 1084   0.464   1.354   1.489  0.0232  0.6941  0.2977
   73MEL    N04 1085   0.383   1.456   1.510  0.0266 -0.7954 -0.3253
   73MEL    N05 1086   0.449   1.251   1.579  0.0902  0.0736 -0.0810
   73MEL    C06 1087   0.517   1.137   1.544  0.1900 -0.1358  0.8519
   73MEL    N07 1088   0.505   1.029   1.619 -0.0485 -0.0569  0.3944
   73MEL    N08 1089   0.611   1.135   1.446 -0.3025  0.0896 -0.1236
   73MEL    H09 1090   0.746   1.347   1.240 -0.3885  1.1669  3.4926
   73MEL    H0A 1091   0.777   1.168   1.267  1.5896 -3.1256  0.9576
   73MEL    H0B 1092   0.386   1.532   1.436 -1.4317  0.7118  1.2263
   73MEL    H0C 1093   0.313   1.453   1.581  2.5945 -0.8049 -0.8378
   73MEL    H0D 1094   0.570   0.948   1.610  1.6628 -2.2074  1.8890
   73MEL    H0E 1095   0.436   1.036   1.697 -2.2581  0.0939 -1.5602
   74MEL    N00 1096   0.206   0.262   1.355 -0.3499  0.1911 -0.1839
   74MEL    C01 1097   0.303   0.260   1.266  0.1308 -0.0435  0.9050
   74MEL    N02 1098   0.373   0.148   1.249 -0.0431  1.1264 -0.4422
   74MEL    C03 1099   0.471   0.153   1.162 -0.7053 -0.2390 -0.5322
   74MEL    N04 1100   0.537   0.036   1.142 -0.7521  0.2422  0.0919
   74MEL    N05 1101   0.510   0.264   1.097  0.3171  0.6050 -0.2041
   74MEL    C06 1102   0.439   0.375   1.123 -0.1297  0.0924 -0.3915
   74MEL    N07 1103   0.479   0.487   1.066  0.3160 -0.4807  0.1857
   74MEL    N08 1104   0.328   0.373   1.202 -0.3839 -0.3728 -0.3427
   74MEL    H09 1105   0.175   0.180   1.399  0.3191 -0.6772 -1.8264
   74MEL    H0A 1106   0.151   0.350   1.359  1.7089 -0.7428  0.7438
   74MEL    H0B 1107   0.499  -0.040   1.202 -0.8901  1.3042  0.0381
   74MEL    H0C 1108   0.638   0.029   1.113  1.1786  0.0758 -1.5577
   74MEL    H0D 1109   0.425   0.572   1.066 -0.9149  0.5237  0.7455
   74MEL    H0E 1110   0.561   0.500   1.012 -0.4086  2.3947 -0.8067
   75MEL    N00 1111   0.722   1.642   1.336 -0.4593  0.1856 -0.2551
   75MEL    C01 1112   0.827   1.627   1.251 -0.2392  0.5893  0.0235
   75MEL    N02 1113   0.908   1.735   1.240 -0.4077 -0.6345  0.5211
   75MEL    C03 1114   1.017   1.713   1.167 -0.0554 -0.0737  0.2109
   75MEL    N04 1115   1.089   1.830   1.150 -0.9639  0.5461 -0.2707
   75MEL    N05 1116   1.044   1.600   1.100  0.2538  0.2057 -0.0523
   75MEL    C06 1117   0.955   1.504   1.113  0.8047  0.2007 -0.4126
   75MEL    N07 1118   0.984   1.397   1.042  0.1835 -0.1326 -0.2231
   75MEL    N08 1119   0.835   1.509   1.179  0.1300 -0.0275  0.2802
   75MEL    H09 1120   0.691   1.727   1.382  2.4982  1.0943  2.3005
   75MEL    H0A 1121   0.656   1.565   1.353 -0.5726  1.2941 -0.5234
   75MEL    H0B 1122   1.068   1.918   1.192 -1.6919 -1.4051  0.0147
   75MEL    H0C 1123   1.186   1.824   1.106 -1.9671  1.2016 -0.5804
   75MEL    H0D 1124   0.926   1.310   1.039 -0.9715 -1.6598 -3.3729
   75MEL    H0E 1125   1.081   1.398   0.997  2.1650  0.3196  0.9773
   76MEL    N00 1126   1.201   0.674   1.262  0.6740 -0.5299 -0.4456
   76MEL    C01 1127   1.117   0.647   1.365  0.3384 -0.0099 -0.2684
   76MEL    N02 1128   1.066   0.526   1.382 -0.4754 -0.4450  0.0196
   76MEL    C03 1129   0.978   0.510   1.479 -0.6224 -0.1971 -0.2234
   76MEL    N04 1130   0.935   0.383   1.508 -0.8267 -0.4412 -0.3435
   76MEL    N05 1131   0.948   0.608   1.568  0.3640 -0.3206  0.7604
   76MEL    C06 1132   1.013   0.722   1.555 -0.5898 -0.1019 -0.0535
   76MEL    N07 1133   0.978   0.822   1.640  0.5457  0.6451 -0.2115
   76MEL    N08 1134   1.099   0.746   1.455  0.0259  0.0480  0.8142
   76MEL    H09 1135   1.211   0.609   1.186 -3.7949 -1.9648  2.7849
   76MEL    H0A 1136   1.245   0.763   1.245 -0.4238  0.1400 -0.2991
   76MEL    H0B 1137   0.953   0.305   1.449 -0.8134  1.4776 -2.4881
   76MEL    H0C 1138   0.868   0.372   1.583  2.2196 -3.5106 -1.3870
   76MEL    H0D 1139   1.042   0.900   1.640 -4.4895 -2.3861  3.4519
   76MEL    H0E 1140   0.899   0.815   1.702 -0.1786 -3.7067 -0.7369
   77MEL    N00 1141   0.432   1.195   1.951  0.2870 -0.5481  0.2890
   77MEL    C01 1142   0.343   1.222   2.049  0.5110  1.0567  0.0628
   77MEL    N02 1143   0.294   1.345   2.055  0.0205 -0.2317 -0.3469
   77MEL    C03 1144   0.201   1.359   2.156 -0.5440 -0.3568  0.1475
   77MEL    N04 1145   0.135   1.472   2.166 -0.1738 -0.3721  0.0252
   77MEL    N05 1146   0.162   1.258   2.237  0.1538  0.0908 -0.5534
   77MEL    C06 1147   0.223   1.137   2.218 -0.3453 -0.1835 -0.0073
   77MEL    N07 1148   0.172   1.025   2.278  0.1884  0.5735  0.2087
   77MEL    N08 1149   0.323   1.117   2.133  0.3579  0.2336  0.5410
   77MEL    H09 1150   0.464   1.269   1.886  0.3213 -0.6760  2.9211
   77MEL    H0A 1151   0.479   1.102   1.956 -2.6290 -1.7875 -0.1108
   77MEL    H0B 1152   0.139   1.545   2.088 -1.2420  1.1658 -1.7731
   77MEL    H0C 1153   0.055   1.478   2.233  0.0148 -1.6867 -3.0145
   77MEL    H0D 1154   0.213   0.942   2.245 -0.6807  2.3706 -0.7475
   77MEL    H0E 1155   0.097   1.032   2.349  1.7911  4.3558  1.2212
   78MEL    N00 1156   3.082   0.244   2.019  0.0637  0.0522 -0.2959
   78MEL    C01 1157   3.169   0.239   1.918 -0.4553  0.1889 -0.3296
   78MEL    N02 1158   3.239   0.124   1.904 -0.6813  0.5449  0.4419
   78MEL    C03 1159   3.335   0.129   1.817  0.2805 -0.5510  0.5229
   78MEL    N04 1160   3.396   0.018   1.777  0.5773  0.4560  0.1664
   78MEL    N05 1161   3.377   0.243   1.752  0.2891  0.1171 -0.0169
   78MEL    C06 1162   3.302   0.353   1.776  0.1106  0.6888  0.4806
   78MEL    N07 1163   3.338   0.468   1.717 -0.0529 -0.7496 -1.3431
   78MEL    N08 1164   3.187   0.353   1.844  0.1594 -0.1085  0.2936
   78MEL    H09 1165   3.063   0.157   2.072  2.1491  1.9856  1.3733
   78MEL    H0A 1166   3.025   0.330   2.027 -0.3388  0.0683 -0.2900
   78MEL    H0B 1167   3.383  -0.071   1.824  2.6709 -1.9983  0.5721
   78MEL    H0C 1168   3.483   0.031   1.727 -0.7357 -0.9994 -0.4800
   78MEL    H0D 1169   3.283   0.549   1.722  0.8041 -0.3560 -0.9477
   78MEL    H0E 1170   3.420   0.474   1.652  0.7871  0.7342 -1.3685
   79MEL    N00 1171   0.455   1.611   2.032 -0.0826  0.1796  0.2934
   79MEL    C01 1172   0.552   1.616   1.942  0.0635  0.1158  0.0400
   79MEL    N02 1173   0.612   1.729   1.934  0.4572 -0.5041 -0.6055
   79MEL    C03 1174   0.705   1.730   1.842 -0.0787  0.5310  1.2087
   79MEL    N04 1175   0.766   1.845   1.814  0.0000  0.0617 -0.1168
   79MEL    N05 1176   0.744   1.630   1.764  0.1511  0.7534  0.1357
   79MEL    C06 1177   0.677   1.514   1.786  0.5660 -0.4780 -0.7843
   79MEL    N07 1178   0.708   1.406   1.718  0.1572  0.4863  0.0947
   79MEL    N08 1179   0.581   1.500   1.877  0.1529 -0.2417  0.1982
   79MEL    H09 1180   0.426   1.694   2.083  2.6540  0.4708 -0.4146
   79MEL    H0A 1181   0.404   1.522   2.055 -0.0564  1.0668 -4.2600
   79MEL    H0B 1182   0.755   1.919   1.883  1.1555  0.0440 -1.0857
   79MEL    H0C 1183   0.844   1.841   1.743  2.6999 -1.0874 -2.2419
   79MEL    H0D 1184   0.669   1.320   1.749  1.3778  1.7910  0.1735
   79MEL    H0E 1185   0.787   1.402   1.648  2.5727  2.7224  1.7298
   80MEL    N00 1186   0.934   0.619   1.961 -0.3664 -0.0296 -0.1749
   80MEL    C01 1187   0.852   0.621   2.069  0.2049 -0.8550  0.5362
   80MEL    N02 1188   0.791   0.503   2.088  0.3873  0.5035  0.2468
   80MEL    C03 1189   0.684   0.505   2.174 -0.4575 -0.6352  0.6806
   80MEL    N04 1190   0.625   0.393   2.186  0.5292 -0.6103 -0.9212
   80MEL    N05 1191   0.650   0.615   2.245  0.2958  0.0034  0.1768
   80MEL    C06 1192   0.729   0.725   2.226 -0.9888  0.0671  0.0137
   80MEL    N07 1193   0.707   0.829   2.308 -0.5810  0.1802 -0.4948
   80MEL    N08 1194   0.835   0.735   2.142  0.2291  0.8585 -0.0028
   80MEL    H09 1195   0.964   0.534   1.912  1.1304  0.9886 -1.6243
   80MEL    H0A 1196   0.977   0.706   1.932  1.1968 -0.2804 -2.6878
   80MEL    H0B 1197   0.651   0.318   2.129 -1.5723 -1.2950  2.1169
   80MEL    H0C 1198   0.547   0.385   2.244  1.3034 -2.5654  3.1195
   80MEL    H0D 1199   0.758   0.916   2.288  0.3690  2.2944  1.2617
   80MEL    H0E 1200   0.619   0.834   2.362 -1.2041  1.8914 -1.7138
   81MEL    N00 1201   0.168   1.984   2.617  0.2350 -0.2798 -0.0797
   81MEL    C01 1202   0.064   1.995   2.702 -0.4700  0.1457 -0.4567
   81MEL    N02 1203  -0.005   2.112   2.707  0.5210 -0.1306 -0.0654
   81MEL    C03 1204  -0.102   2.109   2.805 -0.1811 -0.2855  0.4344
   81MEL    N04 1205  -0.172   2.223   2.807  0.2665  0.1886 -0.2987
   81MEL    N05 1206  -0.141   2.009   2.881 -0.0610  0.7825 -0.4203
   81MEL    C06 1207  -0.076   1.892   2.853 -0.2205  0.1549 -0.7278
   81MEL    N07 1208  -0.115   1.778   2.914  0.3892 -0.0949 -0.2324
   81MEL    N08 1209   0.030   1.881   2.769  0.0718  0.1029  0.0682
   81MEL    H09 1210   0.194   2.065   2.559 -1.4496  2.4920  1.2950
   81MEL    H0A 1211   0.224   1.900   2.627 -1.4181  1.4291 -2.7390
   81MEL    H0B 1212  -0.165   2.292   2.734  0.6280 -1.2469 -0.1049
   81MEL    H0C 1213  -0.262   2.229   2.859 -0.8084  0.8859  0.0892
   81MEL    H0D 1214  -0.070   1.688   2.893 -2.5641  0.4971 -1.0764
   81MEL    H0E 1215  -0.190   1.780   2.988 -1.1760  2.8731  1.0513
   82MEL    N00 1216   0.781   0.967   0.024 -0.0447 -0.4343 -0.2744
   82MEL    C01 1217   0.881   0.966  -0.058 -0.0111  0.2045  0.2019
   82MEL    N02 1218   0.949   0.855  -0.080  0.1992  0.0266  0.6328
   82MEL    C03 1219   1.053   0.869  -0.163  0.0128 -0.2861  0.7548
   82MEL    N04 1220   1.140   0.769  -0.173  0.7097  0.0862  0.4402
   82MEL    N05 1221   1.087   0.980  -0.227  0.6861  0.1733  0.1042
   82MEL    C06 1222   1.009   1.085  -0.205 -0.1701  0.2217 -0.0030
   82MEL    N07 1223   1.039   1.196  -0.274  0.4053  0.8933 -0.4716
   82MEL    N08 1224   0.899   1.083  -0.121  0.1941  0.2638  0.5157
   82MEL    H09 1225   0.751   0.880   0.070  2.5496  1.2294  1.4420
   82MEL    H0A 1226   0.740   1.056   0.045  1.8768  0.6917 -0.5474
   82MEL    H0B 1227   1.132   0.693  -0.103  0.6237 -1.5680 -0.6185
   82MEL    H0C 1228   1.224   0.780  -0.227 -1.3903  1.4996 -0.3883
   82MEL    H0D 1229   0.971   1.272  -0.258  0.7327  1.0015  1.0889
   82MEL    H0E 1230   1.124   1.217  -0.326 -0.9228  5.2357 -1.1293
   83MEL    N00 1231   1.318   0.116   0.053 -0.6849 -0.0932  0.2689
   83MEL    C01 1232   1.412   0.113  -0.045  0.0967 -0.0160 -0.2711
   83MEL    N02 1233   1.484   0.226  -0.051 -0.8154  0.0406 -0.0012
   83MEL    C03 1234   1.584   0.225  -0.145  0.3391 -0.4209  0.5997
   83MEL    N04 1235   1.649   0.341  -0.167 -0.7718 -0.1139 -0.1831
   83MEL    N05 1236   1.618   0.119  -0.221  0.2458  0.2121  0.1281
   83MEL    C06 1237   1.532   0.013  -0.206 -0.5896  0.0594 -0.0964
   83MEL    N07 1238   1.558  -0.101  -0.276  0.3193  0.6248 -0.3808
   83MEL    N08 1239   1.427   0.003  -0.124  0.4570 -0.1237 -0.0588
   83MEL    H09 1240   1.297   0.204   0.104  2.4410 -1.2178  0.7886
   83MEL    H0A 1241   1.261   0.035   0.065 -0.2471  0.1901 -0.9714
   83MEL    H0B 1242   1.643   0.416  -0.093 -1.6997  1.1903  1.6965
   83MEL    H0C 1243   1.722   0.340  -0.235 -0.9218  0.7824  0.6024
   83MEL    H0D 1244   1.492  -0.177  -0.273 -0.7383  2.0519 -1.4983
   83MEL    H0E 1245   1.635  -0.105  -0.342 -0.7344 -2.3158  1.3750
   84MEL    N00 1246   0.669   1.401   2.604  0.2136 -0.5395  0.4290
   84MEL    C01 1247   0.579   1.392   2.701 -0.0859  0.1083  0.2975
   84MEL    N02 1248   0.522   1.268   2.730 -0.7782  0.7366 -0.0837
   84MEL    C03 1249   0.437   1.260   2.831  0.6102  0.2287 -0.8482
   84MEL    N04 1250   0.375   1.143   2.853  0.0333  0.2174 -0.3373
   84MEL    N05 1251   0.403   1.369   2.906  0.1713  1.0379  0.3634
   84MEL    C06 1252   0.470   1.481   2.884  0.7196 -0.1596  0.1697
   84MEL    N07 1253   0.443   1.589   2.957  0.0667  0.1994  0.0710
   84MEL    N08 1254   0.562   1.499   2.786 -0.3071 -0.2529 -0.2047
   84MEL    H09 1255   0.695   1.313   2.554 -1.5442 -0.0833  0.0939
   84MEL    H0A 1256   0.710   1.494   2.584  0.9601  2.2840  1.8632
   84MEL    H0B 1257   0.384   1.085   2.773 -0.4690  0.0211  1.0686
   84MEL    H0C 1258   0.291   1.129   2.911  3.0545  0.3202 -0.9469
   84MEL    H0D 1259   0.495   1.677   2.958 -0.5066  0.1965 -1.7297
   84MEL    H0E 1260   0.371   1.584   3.029 -0.3338  1.7642 -0.3600
   85MEL    N00 1261   1.010   1.981   0.635 -0.1026 -0.0837 -0.1774
   85MEL    C01 1262   0.914   1.969   0.727 -0.1328 -0.3694  0.2136
   85MEL    N02 1263   0.846   2.087   0.746 -0.4210 -0.1711 -0.0616
   85MEL    C03 1264   0.754   2.085   0.840 -0.2954 -0.3122 -0.5591
   85MEL    N04 1265   0.694   2.207   0.853 -0.3212 -0.3570  0.2454
   85MEL    N05 1266   0.722   1.979   0.914 -0.0175  0.2773  0.0894
   85MEL    C06 1267   0.796   1.867   0.893  0.5556 -0.5391 -0.5403
   85MEL    N07 1268   0.767   1.757   0.965  0.7455 -0.1848  0.0465
   85MEL    N08 1269   0.895   1.854   0.798  0.8124 -0.6826  0.5002
   85MEL    H09 1270   1.042   2.067   0.587  1.2421 -0.1594  0.1507
   85MEL    H0A 1271   1.069   1.897   0.625 -0.2770  1.2675 -3.2853
   85MEL    H0B 1272   0.717   2.280   0.786  0.3592 -2.2841  1.0095
   85MEL    H0C 1273   0.616   2.216   0.919 -0.0135 -2.0699  0.4533
   85MEL    H0D 1274   0.825   1.679   0.947  0.6968  0.7567 -0.1259
   85MEL    H0E 1275   0.707   1.757   1.054 -1.8960 -1.7719  0.8574
   86MEL    N00 1276   0.488   0.982   0.693 -0.0650 -0.3764 -0.0799
   86MEL    C01 1277   0.585   0.987   0.602 -0.1766 -0.1423 -0.6769
   86MEL    N02 1278   0.651   0.871   0.583  0.1878  0.3893  0.8910
   86MEL    C03 1279   0.756   0.872   0.495 -0.3575  0.0956 -0.1985
   86MEL    N04 1280   0.818   0.759   0.470 -0.1500  0.3206  0.2460
   86MEL    N05 1281   0.795   0.985   0.423 -0.2077 -0.6199  0.2440
   86MEL    C06 1282   0.724   1.096   0.451 -0.3224 -0.7806 -0.0959
   86MEL    N07 1283   0.755   1.212   0.388 -0.2750  0.0187 -0.3497
   86MEL    N08 1284   0.616   1.101   0.538 -0.5745 -0.0606 -0.4670
   86MEL    H09 1285   0.463   0.892   0.733  0.7064 -0.1579 -0.0469
   86MEL    H0A 1286   0.430   1.060   0.715  1.1511 -0.0335  0.7811
   86MEL    H0B 1287   0.800   0.687   0.538  0.9975 -0.6878 -1.4633
   86MEL    H0C 1288   0.913   0.749   0.442 -0.6390  0.9645  4.0014
   86MEL    H0D 1289   0.719   1.303   0.423  2.6509 -0.3395  3.8687
   86MEL    H0E 1290   0.829   1.197   0.319 -0.7373  0.1576 -1.3886
   87MEL    N00 1291   0.998   0.120   0.713  0.1137 -0.7820  0.2689
   87MEL    C01 1292   1.103   0.122   0.630  0.7523  0.9331 -0.2299
   87MEL    N02 1293   1.167   0.237   0.621  0.5018 -0.2185  0.1210
   87MEL    C03 1294   1.276   0.226   0.537 -0.2444  0.4031  0.0988
   87MEL    N04 1295   1.354   0.341   0.533  1.1829  0.7249  0.3754
   87MEL    N05 1296   1.303   0.131   0.447  0.3163  0.0904  0.4454
   87MEL    C06 1297   1.224   0.027   0.458 -0.3015 -0.2852 -0.9602
   87MEL    N07 1298   1.247  -0.082   0.378  0.4606  0.3568  0.4018
   87MEL    N08 1299   1.127   0.013   0.551 -0.4820  0.4813 -0.0189
   87MEL    H09 1300   0.965   0.213   0.749 -0.4967 -0.2412 -1.0412
   87MEL    H0A 1301   0.954   0.033   0.715  1.6407 -1.4478  2.1724
   87MEL    H0B 1302   1.334   0.416   0.607  2.6215 -0.2410 -1.0807
   87MEL    H0C 1303   1.445   0.332   0.490 -0.8701 -1.7987 -2.9873
   87MEL    H0D 1304   1.203  -0.164   0.394  1.5646  2.3055 -1.6186
   87MEL    H0E 1305   1.332  -0.079   0.321 -2.3377 -1.4203  2.5127
   88MEL    N00 1306   1.540   1.375   0.645 -0.1691  0.7996  0.0672
   88MEL    C01 1307   1.435   1.367   0.726  0.2120 -0.3334  0.1715
   88MEL    N02 1308   1.373   1.245   0.738 -0.1269 -0.6081  0.0619
   88MEL    C03 1309   1.279   1.240   0.834  0.8459 -0.3313 -0.5250
   88MEL    N04 1310   1.213   1.121   0.839 -0.4602  0.6919  0.3538
   88MEL    N05 1311   1.241   1.342   0.914 -0.3664 -0.0287  0.3010
   88MEL    C06 1312   1.311   1.454   0.894 -0.3218  0.1179 -0.7926
   88MEL    N07 1313   1.289   1.558   0.976 -0.4055 -0.0134 -0.1804
   88MEL    N08 1314   1.409   1.474   0.803 -0.2931 -0.7268  1.1072
   88MEL    H09 1315   1.558   1.310   0.570 -0.6455 -0.0548  3.6637
   88MEL    H0A 1316   1.576   1.468   0.640 -0.4142  0.8185  0.0899
   88MEL    H0B 1317   1.237   1.045   0.767  2.3498 -0.4963 -3.0238
   88MEL    H0C 1318   1.124   1.114   0.887 -3.4453 -1.0923 -2.0231
   88MEL    H0D 1319   1.339   1.640   0.973 -1.6179 -0.9146 -0.3219
   88MEL    H0E 1320   1.208   1.568   1.029  2.9808  2.0525  1.8167
   89MEL    N00 1321   0.712   1.991   1.278  0.3089 -0.0759  0.3521
   89MEL    C01 1322   0.619   1.991   1.368 -0.2205 -0.3446  0.2339
   89MEL    N02 1323   0.551   2.111   1.385 -0.5293 -0.3465 -0.1134
   89MEL    C03 1324   0.452   2.107   1.477  0.3081 -0.2418 -0.1346
   89MEL    N04 1325   0.379   2.220   1.471  0.2212  0.1999  0.1099
   89MEL    N05 1326   0.419   2.002   1.553 -0.0079  0.4049 -0.4001
   89MEL    C06 1327   0.508   1.899   1.542 -0.0859  0.1538  0.0782
   89MEL    N07 1328   0.480   1.788   1.617  0.2921 -0.5565  0.5554
   89MEL    N08 1329   0.608   1.880   1.454 -0.3837 -0.0302 -0.4758
   89MEL    H09 1330   0.751   2.076   1.227 -1.0620  0.6093  0.7579
   89MEL    H0A 1331   0.766   1.901   1.270 -0.0149 -0.0609 -0.0359
   89MEL    H0B 1332   0.401   2.288   1.396 -3.2238  0.0293 -0.8229
   89MEL    H0C 1333   0.290   2.215   1.513  3.3671 -0.8840  1.7085
   89MEL    H0D 1334   0.554   1.722   1.620 -1.4150  1.2787  0.1799
   89MEL    H0E 1335   0.394   1.784   1.670 -1.4547  0.3573 -0.8259
   90MEL    N00 1336   0.215   1.006   1.354  0.0984 -0.3099 -0.0754
   90MEL    C01 1337   0.323   1.008   1.268  0.6230  0.3248 -0.1950
   90MEL    N02 1338   0.379   0.888   1.249  0.4431  0.2906 -0.2549
   90MEL    C03 1339   0.476   0.894   1.155 -0.4130 -0.9707  0.5162
   90MEL    N04 1340   0.546   0.777   1.128 -0.2252  0.0700  0.1644
   90MEL    N05 1341   0.511   1.003   1.076 -0.1791 -0.6672 -0.2810
   90MEL    C06 1342   0.450   1.119   1.113 -0.3822  0.0745  0.0240
   90MEL    N07 1343   0.489   1.231   1.049  0.2103 -0.3015  0.0048
   90MEL    N08 1344   0.353   1.126   1.204  0.1967  0.0791  0.2502
   90MEL    H09 1345   0.179   0.919   1.399  1.2931  2.0563  1.3158
   90MEL    H0A 1346   0.165   1.094   1.382 -0.7779 -0.6812  0.4929
   90MEL    H0B 1347   0.548   0.694   1.188 -0.4035 -2.8615 -0.8830
   90MEL    H0C 1348   0.631   0.799   1.069  1.3409  3.1763 -1.2378
   90MEL    H0D 1349   0.436   1.315   1.055  2.0779 -2.0440  0.1891
   90MEL    H0E 1350   0.578   1.231   0.996 -1.5208 -1.7053 -0.0462
   91MEL    N00 1351   0.730   0.130   1.359 -0.4959  0.5126 -0.1603
   91MEL    C01 1352   0.839   0.128   1.277  0.3076 -0.1548 -0.2311
   91MEL    N02 1353   0.909   0.240   1.261 -0.3849 -0.0214 -0.0508
   91MEL    C03 1354   1.008   0.237   1.169  0.1188 -0.8299 -0.3417
   91MEL    N04 1355   1.081   0.348   1.161  0.8231 -0.3067  0.0766
   91MEL    N05 1356   1.037   0.130   1.097  0.1918  0.0205 -0.1854
   91MEL    C06 1357   0.959   0.021   1.126 -0.2416  0.1568  0.9441
   91MEL    N07 1358   0.978  -0.086   1.049 -0.5166 -0.2798  0.0881
   91MEL    N08 1359   0.854   0.017   1.205  0.4922  0.0439 -0.3847
   91MEL    H09 1360   0.693   0.221   1.395 -1.1225  0.7427  0.7869
   91MEL    H0A 1361   0.681   0.041   1.375 -0.9793  1.7828  1.3146
   91MEL    H0B 1362   1.063   0.430   1.234 -1.6141 -0.6242  0.2359
   91MEL    H0C 1363   1.165   0.357   1.102 -3.2665  1.5519  1.2274
   91MEL    H0D 1364   0.908  -0.164   1.049  1.2396  0.0989 -0.9112
   91MEL    H0E 1365   1.058  -0.089   0.987 -3.7066 -0.3144  1.1044
   92MEL    N00 1366   1.256   1.371   1.287  0.0624 -0.2466  0.5105
   92MEL    C01 1367   1.153   1.376   1.373  0.1641  0.2496 -0.6083
   92MEL    N02 1368   1.085   1.253   1.385 -0.4027  0.2573 -0.2623
   92MEL    C03 1369   0.987   1.257   1.481 -0.5325  0.1154  0.0721
   92MEL    N04 1370   0.904   1.154   1.487 -0.2853  0.2241 -0.5470
   92MEL    N05 1371   0.963   1.361   1.568  0.3258 -0.3297  0.1496
   92MEL    C06 1372   1.029   1.472   1.538 -0.0227 -0.7802 -0.7206
   92MEL    N07 1373   0.992   1.579   1.612  0.0550  0.2589  0.1888
   92MEL    N08 1374   1.123   1.491   1.444  0.7380  0.5813 -0.6661
   92MEL    H09 1375   1.295   1.280   1.249  2.4887 -0.7673 -0.0808
   92MEL    H0A 1376   1.311   1.456   1.272 -0.2241 -2.1908 -1.3939
   92MEL    H0B 1377   0.899   1.075   1.418  0.3323  1.4638  0.5497
   92MEL    H0C 1378   0.833   1.173   1.552 -2.2213  1.0819 -0.2967
   92MEL    H0D 1379   1.032   1.675   1.606  1.2988  1.5328  1.5998
   92MEL    H0E 1380   0.910   1.576   1.674  0.3664  1.0993  1.3661
   93MEL    N00 1381   0.429   1.984   1.939 -0.2082  0.8187 -0.5387
   93MEL    C01 1382   0.344   1.984   2.042  0.3357 -0.7915  0.3269
   93MEL    N02 1383   0.280   2.105   2.060 -0.1417 -0.1365 -0.1771
   93MEL    C03 1384   0.184   2.111   2.147 -0.1331 -0.5860 -0.2893
   93MEL    N04 1385   0.109   2.221   2.159  0.2369 -0.2688  0.0344
   93MEL    N05 1386   0.150   2.016   2.231  0.7917  0.0450 -0.6380
   93MEL    C06 1387   0.221   1.901   2.212 -0.7971 -0.0926 -0.0649
   93MEL    N07 1388   0.189   1.799   2.296  0.5462  0.0761 -0.0846
   93MEL    N08 1389   0.317   1.876   2.116  0.5259 -0.2675 -0.9115
   93MEL    H09 1390   0.448   2.072   1.890 -0.5021 -0.0916  0.3247
   93MEL    H0A 1391   0.483   1.897   1.929  1.5810  2.1559  1.7504
   93MEL    H0B 1392   0.129   2.297   2.098 -2.3018 -0.2286 -0.6638
   93MEL    H0C 1393   0.021   2.217   2.207 -1.3886  0.8546 -0.8088
   93MEL    H0D 1394   0.243   1.713   2.282  0.1106  0.3518 -1.4693
   93MEL    H0E 1395   0.122   1.808   2.375  0.3292  1.2494 -3.4491
   94MEL    N00 1396   3.051   0.972   2.026 -0.2650  0.2462 -0.0973
   94MEL    C01 1397   3.152   0.968   1.941  0.1822  0.8730 -0.6161
   94MEL    N02 1398   3.225   0.850   1.939  0.0784  0.2822 -0.1938
   94MEL    C03 1399   3.322   0.851   1.846  0.4082  0.1930  0.2273
   94MEL    N04 1400   3.381   0.737   1.818  0.0034 -0.2998  0.0937
   94MEL    N05 1401   3.350   0.957   1.763  0.5427 -0.6853 -0.7616
   94MEL    C06 1402   3.284   1.072   1.789  0.4268  0.5117 -0.1741
   94MEL    N07 1403   3.317   1.174   1.714  0.3597 -0.3326  1.0327
   94MEL    N08 1404   3.180   1.083   1.873 -0.0705 -0.4118 -0.4563
   94MEL    H09 1405   3.017   0.887   2.072  0.7577 -1.3305  1.2537
   94MEL    H0A 1406   2.995   1.058   2.027  0.5545 -2.6443 -2.1974
   94MEL    H0B 1407   3.367   0.658   1.884 -0.2787  0.2908  0.6917
   94MEL    H0C 1408   3.459   0.738   1.759  1.4445  0.4535 -0.7320
   94MEL    H0D 1409   3.272   1.259   1.725  0.4529 -3.3132  0.2252
   94MEL    H0E 1410   3.388   1.173   1.639 -1.1874 -0.3650  1.3073
   95MEL    N00 1411   0.438   0.127   2.023 -0.4121 -0.3002  0.1535
   95MEL    C01 1412   0.526   0.142   1.923  0.4978  0.0827 -0.1544
   95MEL    N02 1413   0.590   0.259   1.908  0.2017 -0.3509 -0.2370
   95MEL    C03 1414   0.696   0.240   1.828 -0.0034 -0.3331  0.5063
   95MEL    N04 1415   0.772   0.351   1.824 -0.1437  0.6824  0.3138
   95MEL    N05 1416   0.737   0.132   1.758 -0.3957 -0.5732  0.2161
   95MEL    C06 1417   0.663   0.022   1.788  0.2388  0.6136  0.0439
   95MEL    N07 1418   0.683  -0.091   1.715  0.2542 -0.7059  0.4930
   95MEL    N08 1419   0.551   0.022   1.860 -0.2708 -0.4395 -0.5907
   95MEL    H09 1420   0.401   0.208   2.067 -0.1281 -1.7644  0.7443
   95MEL    H0A 1421   0.392   0.037   2.033 -2.4997 -0.1276  0.0821
   95MEL    H0B 1422   0.729   0.421   1.882 -1.1191 -2.5396 -0.9879
   95MEL    H0C 1423   0.872   0.348   1.810  1.5001  3.7032  1.5464
   95MEL    H0D 1424   0.602  -0.163   1.715 -2.6018  0.9893  4.2019
   95MEL    H0E 1425   0.752  -0.095   1.642 -0.1695  1.9855 -2.2354
   96MEL    N00 1426   0.944   1.363   1.949 -0.9016  0.0654 -0.0466
   96MEL    C01 1427   0.844   1.364   2.050 -0.0408 -0.3920  0.4801
   96MEL    N02 1428   0.768   1.253   2.060 -0.2373 -0.3613 -0.0157
   96MEL    C03 1429   0.676   1.258   2.154  0.4281 -0.2656 -0.3640
   96MEL    N04 1430   0.606   1.148   2.173 -0.1063  0.6848 -0.5776
   96MEL    N05 1431   0.652   1.360   2.241  0.0055 -0.2722  0.7135
   96MEL    C06 1432   0.741   1.464   2.222 -0.2268 -0.3729  1.0830
   96MEL    N07 1433   0.717   1.573   2.294  0.1033  0.2913  0.0565
   96MEL    N08 1434   0.840   1.469   2.134 -0.3031 -0.3067 -0.0043
   96MEL    H09 1435   0.970   1.271   1.908 -2.5380  0.0480  0.3289
   96MEL    H0A 1436   1.005   1.444   1.942 -0.0210 -1.3420 -2.6606
   96MEL    H0B 1437   0.633   1.063   2.117  0.5139 -0.3536 -2.4031
   96MEL    H0C 1438   0.525   1.148   2.237 -1.0463 -1.0352 -0.1593
   96MEL    H0D 1439   0.779   1.648   2.286 -0.0815 -1.3645 -0.2910
   96MEL    H0E 1440   0.633   1.577   2.349 -1.1040 -3.0159  0.4834
   97MEL    N00 1441   1.193   0.495   2.602  1.0984  0.0091  0.3876
   97MEL    C01 1442   1.106   0.493   2.697  0.4966 -0.0439 -0.6720
   97MEL    N02 1443   1.032   0.606   2.719  0.3177  0.8616  0.2490
   97MEL    C03 1444   0.949   0.599   2.819  0.0597 -0.2906  0.3159
   97MEL    N04 1445   0.875   0.717   2.829  0.3474  0.2579 -0.1820
   97MEL    N05 1446   0.932   0.493   2.902  0.2194 -0.2007  0.2146
   97MEL    C06 1447   1.010   0.392   2.869 -0.2763  0.2922 -0.4814
   97MEL    N07 1448   0.990   0.286   2.941 -0.2304  0.2964 -0.0685
   97MEL    N08 1449   1.101   0.387   2.774 -0.6433  0.0597  0.4592
   97MEL    H09 1450   1.218   0.579   2.553  2.9331 -0.8718  0.1408
   97MEL    H0A 1451   1.248   0.409   2.598  0.3170  1.0454  1.0579
   97MEL    H0B 1452   0.881   0.787   2.751 -0.8238 -0.0571 -0.2846
   97MEL    H0C 1453   0.793   0.722   2.893  3.6293  1.0035 -0.3864
   97MEL    H0D 1454   1.039   0.201   2.930 -2.8615  0.4349  0.8549
   97MEL    H0E 1455   0.914   0.291   3.005 -0.2727 -0.7746  0.9414
   98MEL    N00 1456   1.830   1.762   0.053  0.0414 -0.5270  0.4452
   98MEL    C01 1457   1.928   1.758  -0.035 -0.2181  0.0144  0.4475
   98MEL    N02 1458   2.004   1.645  -0.047  0.8358 -0.3859  0.3682
   98MEL    C03 1459   2.098   1.640  -0.146  0.4642 -0.2926  1.1022
   98MEL    N04 1460   2.162   1.522  -0.160  0.2074  0.9035 -0.1144
   98MEL    N05 1461   2.135   1.744  -0.224 -0.0330  0.7502 -0.6149
   98MEL    C06 1462   2.064   1.858  -0.200  0.7846  0.6949 -0.2922
   98MEL    N07 1463   2.094   1.969  -0.274  0.2254  0.3752  0.1919
   98MEL    N08 1464   1.955   1.869  -0.112  0.6966 -0.0105  0.3027
   98MEL    H09 1465   1.797   1.674   0.097  1.0210  1.1721  1.4408
   98MEL    H0A 1466   1.761   1.841   0.059 -0.8399  0.1470 -1.0733
   98MEL    H0B 1467   2.138   1.452  -0.086  0.0787  0.9884  0.3848
   98MEL    H0C 1468   2.244   1.496  -0.217 -1.5009  0.6903 -2.1433
   98MEL    H0D 1469   2.040   2.052  -0.260  0.8009  0.5756 -2.4878
   98MEL    H0E 1470   2.169   1.970  -0.347 -1.9720  0.2631 -1.5461
   99MEL    N00 1471   2.342   0.855   0.024  0.1157  0.5402  0.5759
   99MEL    C01 1472   2.436   0.869  -0.064  0.0975 -0.4075  1.1631
   99MEL    N02 1473   2.500   0.992  -0.077 -0.2722  0.6929  0.0735
   99MEL    C03 1474   2.608   0.984  -0.156 -0.0999  0.4510  0.2914
   99MEL    N04 1475   2.678   1.099  -0.168 -0.3767 -1.0559  0.1297
   99MEL    N05 1476   2.641   0.873  -0.230  0.9967  0.3097 -0.1038
   99MEL    C06 1477   2.564   0.762  -0.218 -0.1878  0.0212 -0.7139
   99MEL    N07 1478   2.596   0.654  -0.295  0.0969  0.0574  0.1611
   99MEL    N08 1479   2.456   0.754  -0.141  0.3061  0.2979 -0.1144
   99MEL    H09 1480   2.313   0.939   0.076 -0.9305  0.7124  0.4983
   99MEL    H0A 1481   2.288   0.772   0.033  0.5415  0.3227 -0.9498
   99MEL    H0B 1482   2.653   1.174  -0.101 -1.0366  0.4667  0.3743
   99MEL    H0C 1483   2.755   1.106  -0.229  0.4302  1.8837 -0.4793
   99MEL    H0D 1484   2.530   0.570  -0.305 -0.3746 -0.0908 -2.3993
   99MEL    H0E 1485   2.690   0.649  -0.342 -0.0724 -0.4511  1.6837
  100MEL    N00 1486   1.745   2.083   2.646 -0.2086 -0.6894  1.0242
  100MEL    C01 1487   1.637   2.099   2.726  0.1064  0.0264  0.3520
  100MEL    N02 1488   1.553   1.996   2.737  0.2378 -1.0660 -0.3351
  100MEL    C03 1489   1.449   2.015   2.820 -0.5419 -0.4059 -0.2184
  100MEL    N04 1490   1.381   1.905   2.842  0.0589  0.1822 -0.4078
  100MEL    N05 1491   1.421   2.122   2.897  0.3411  0.0823 -0.3035
  100MEL    C06 1492   1.510   2.217   2.873  0.7374 -0.4048  1.2182
  100MEL    N07 1493   1.491   2.333   2.930 -0.6000  0.0920 -0.4615
  100MEL    N08 1494   1.625   2.211   2.803 -0.2075 -0.7658 -0.2533
  100MEL    H09 1495   1.769   2.001   2.596  2.8271  1.6733  1.5992
  100MEL    H0A 1496   1.807   2.162   2.642 -3.1759  0.2199 -3.8667
  100MEL    H0B 1497   1.401   1.831   2.779 -0.0212 -0.0990 -0.3322
  100MEL    H0C 1498   1.288   1.920   2.879  0.1903  1.1718  0.8200
  100MEL    H0D 1499   1.548   2.413   2.928 -0.8373  0.4475  2.0911
  100MEL    H0E 1500   1.403   2.344   2.980  0.7093  1.6258  1.8256
  101MEL    N00 1501   2.059   0.496   0.632  0.4146  0.0100 -0.3418
  101MEL    C01 1502   1.957   0.497   0.720  0.3511  0.0459  0.2499
  101MEL    N02 1503   1.889   0.613   0.730  0.1205  0.4612 -0.4490
  101MEL    C03 1504   1.796   0.608   0.829 -1.1114 -0.1425  0.0921
  101MEL    N04 1505   1.726   0.710   0.848  0.0825  0.2947  0.4706
  101MEL    N05 1506   1.768   0.505   0.912  0.6519  0.1637  0.1615
  101MEL    C06 1507   1.842   0.392   0.890 -0.2504  0.1041  0.1197
  101MEL    N07 1508   1.814   0.283   0.961 -0.1458 -0.0784  0.5716
  101MEL    N08 1509   1.941   0.384   0.798  0.0884  0.3190  0.3001
  101MEL    H09 1510   2.085   0.582   0.578  1.4894  1.0019 -2.0955
  101MEL    H0A 1511   2.118   0.414   0.624  1.1082  2.7293 -0.5840
  101MEL    H0B 1512   1.742   0.790   0.789  0.6017 -0.4642 -0.6395
  101MEL    H0C 1513   1.642   0.705   0.903  0.5617 -1.7871  0.0149
  101MEL    H0D 1514   1.886   0.205   0.959 -2.1899 -0.0067 -0.4060
  101MEL    H0E 1515   1.734   0.280   1.020  0.8542  0.9271 -0.6391
  102MEL    N00 1516   1.542   1.743   0.715  0.1442 -0.0361 -0.5337
  102MEL    C01 1517   1.641   1.738   0.622  0.5624  0.2207  0.5467
  102MEL    N02 1518   1.702   1.616   0.603 -0.0370  0.5344 -0.1769
  102MEL    C03 1519   1.803   1.624   0.511  0.4651 -0.4087 -0.0032
  102MEL    N04 1520   1.880   1.517   0.508 -0.0549  0.5879 -1.3080
  102MEL    N05 1521   1.840   1.733   0.436  0.3875  0.4598  0.2356
  102MEL    C06 1522   1.769   1.846   0.462 -0.2179  0.2193 -0.7515
  102MEL    N07 1523   1.797   1.955   0.389  0.8816 -0.9990  0.2152
  102MEL    N08 1524   1.664   1.852   0.551  0.3224  0.4950  0.3850
  102MEL    H09 1525   1.508   1.661   0.772  3.5229  1.7404 -2.2965
  102MEL    H0A 1526   1.499   1.838   0.736 -0.3163 -0.1365  0.1213
  102MEL    H0B 1527   1.855   1.442   0.567 -1.2275  0.6036 -1.0557
  102MEL    H0C 1528   1.973   1.522   0.468  2.5076  1.3300 -0.0895
  102MEL    H0D 1529   1.729   2.033   0.390 -0.5844 -1.2505  0.9012
  102MEL    H0E 1530   1.870   1.954   0.318 -0.4522 -1.2079  1.6237
  103MEL    N00 1531   2.062   0.855   0.721 -0.2117 -0.1389 -0.1737
  103MEL    C01 1532   2.161   0.861   0.635 -0.3152 -0.1332 -0.4477
  103MEL    N02 1533   2.215   0.984   0.608  0.1388 -0.0249 -0.1404
  103MEL    C03 1534   2.319   0.972   0.526 -1.1424 -0.7257  0.6360
  103MEL    N04 1535   2.382   1.087   0.501  0.5553  0.6898 -0.2193
  103MEL    N05 1536   2.359   0.863   0.454 -0.9428 -0.0365 -0.1987
  103MEL    C06 1537   2.287   0.753   0.479 -0.3261  0.1561  0.2036
  103MEL    N07 1538   2.317   0.644   0.405  0.2370 -0.9254  0.5719
  103MEL    N08 1539   2.179   0.749   0.559 -0.2011 -0.1950  0.0344
  103MEL    H09 1540   2.024   0.940   0.758  0.6126 -2.2471 -0.6540
  103MEL    H0A 1541   2.024   0.757   0.731  2.0838 -1.6427 -1.2912
  103MEL    H0B 1542   2.344   1.169   0.549  2.0713  1.0602  2.5149
  103MEL    H0C 1543   2.466   1.082   0.445 -1.5663  1.2854  0.8077
  103MEL    H0D 1544   2.254   0.563   0.397  2.6486 -2.1256  2.1216
  103MEL    H0E 1545   2.402   0.653   0.349  1.5320 -4.0076 -0.1506
  104MEL    N00 1546   2.601   2.121   0.631  0.0222 -0.2506 -0.1879
  104MEL    C01 1547   2.497   2.129   0.712 -0.3735  0.5787  0.6511
  104MEL    N02 1548   2.419   2.018   0.712  0.4157  0.0711 -0.0741
  104MEL    C03 1549   2.314   2.029   0.801  0.2777 -0.4603 -0.6362
  104MEL    N04 1550   2.239   1.926   0.822  0.4581  0.4575  0.1798
  104MEL    N05 1551   2.286   2.139   0.874 -0.0537  0.3437  0.0360
  104MEL    C06 1552   2.370   2.245   0.860  0.2580  0.9105 -0.0239
  104MEL    N07 1553   2.352   2.345   0.948 -0.1819 -0.0726 -0.5585
  104MEL    N08 1554   2.477   2.243   0.778 -0.2624 -0.2122  0.3348
  104MEL    H09 1555   2.609   2.042   0.566 -1.9280  2.6968  0.2787
  104MEL    H0A 1556   2.665   2.202   0.627  1.2243 -0.6848 -0.8711
  104MEL    H0B 1557   2.267   1.837   0.783 -1.4090 -0.6859 -0.4040
  104MEL    H0C 1558   2.148   1.930   0.870  0.8997 -0.0193 -2.9504
  104MEL    H0D 1559   2.414   2.419   0.947 -0.5218 -1.5186 -0.0638
  104MEL    H0E 1560   2.272   2.351   1.010  0.7121 -0.9559 -2.0118
  105MEL    N00 1561   1.801   0.478   1.274  0.0552  0.6433 -0.2202
  105MEL    C01 1562   1.700   0.478   1.362 -0.3649 -0.9133  0.5086
  105MEL    N02 1563   1.636   0.596   1.378  0.4424  0.0452  0.2244
  105MEL    C03 1564   1.526   0.588   1.451 -0.1815 -0.4662 -0.6698
  105MEL    N04 1565   1.446   0.695   1.459  0.9818 -0.7948 -0.3109
  105MEL    N05 1566   1.498   0.484   1.532  0.4909 -0.3616  0.0081
  105MEL    C06 1567   1.572   0.373   1.514  0.0500 -0.2316 -0.1209
  105MEL    N07 1568   1.534   0.265   1.583  1.0538 -0.4610  0.5963
  105MEL    N08 1569   1.677   0.363   1.435 -0.0678 -0.3906  0.0033
  105MEL    H09 1570   1.827   0.568   1.230 -2.3284 -0.3639 -1.0397
  105MEL    H0A 1571   1.848   0.389   1.257 -0.4592  1.3603 -2.6693
  105MEL    H0B 1572   1.476   0.780   1.410 -0.0368 -1.4995  0.0182
  105MEL    H0C 1573   1.362   0.689   1.514  2.7530 -0.6334  1.2972
  105MEL    H0D 1574   1.587   0.181   1.585 -0.2630  3.1683  0.9185
  105MEL    H0E 1575   1.447   0.273   1.646 -0.5737 -2.9573  1.4643
  106MEL    N00 1576   1.268   1.756   1.364 -0.1651 -0.3073 -0.2089
  106MEL    C01 1577   1.368   1.751   1.274  0.5789  0.1445  0.7039
  106MEL    N02 1578   1.429   1.633   1.266  0.4201  0.5411  0.0143
  106MEL    C03 1579   1.524   1.629   1.174  0.0723  0.3115 -0.3269
  106MEL    N04 1580   1.571   1.508   1.158  0.0948  0.1174  0.1489
  106MEL    N05 1581   1.568   1.723   1.091 -0.1167 -0.0021  0.7422
  106MEL    C06 1582   1.503   1.845   1.111  0.6694  0.3403 -0.0677
  106MEL    N07 1583   1.540   1.959   1.044  0.0248  0.4197 -0.2140
  106MEL    N08 1584   1.399   1.853   1.192 -0.1892  0.6308  0.1375
  106MEL    H09 1585   1.219   1.671   1.400  0.5421 -2.0251 -0.8707
  106MEL    H0A 1586   1.221   1.841   1.379 -1.2631 -1.4843  0.6381
  106MEL    H0B 1587   1.551   1.437   1.229  1.4608 -0.4015  0.3475
  106MEL    H0C 1588   1.662   1.512   1.109  1.8567 -2.0048 -0.3061
  106MEL    H0D 1589   1.499   2.047   1.029  0.5743 -0.5250  2.4498
  106MEL    H0E 1590   1.622   1.948   0.987  0.7103  2.8796  1.1732
  107MEL    N00 1591   1.797   0.841   1.382 -0.7436 -0.4474 -0.5200
  107MEL    C01 1592   1.889   0.870   1.281  0.8914 -0.6850 -0.0553
  107MEL    N02 1593   1.954   0.990   1.278 -1.3165 -0.1121 -0.6332
  107MEL    C03 1594   2.047   0.991   1.181 -0.0001 -0.8586 -0.6380
  107MEL    N04 1595   2.106   1.111   1.162 -0.4145 -0.3649  0.3286
  107MEL    N05 1596   2.087   0.891   1.100 -0.4902 -0.3186  1.1292
  107MEL    C06 1597   2.018   0.777   1.111 -0.0739 -0.4489 -0.1474
  107MEL    N07 1598   2.053   0.678   1.036 -1.0800  0.2694  0.1266
  107MEL    N08 1599   1.916   0.759   1.202 -0.1185  0.1415  0.0997
  107MEL    H09 1600   1.757   0.918   1.428  1.0468 -1.2621 -1.2028
  107MEL    H0A 1601   1.759   0.749   1.389  0.2002  1.3464 -0.2968
  107MEL    H0B 1602   2.086   1.179   1.233  1.0136  0.5643  0.1497
  107MEL    H0C 1603   2.198   1.105   1.112  0.3914  3.9756 -3.8306
  107MEL    H0D 1604   2.011   0.589   1.038  1.4082  0.3426 -0.2521
  107MEL    H0E 1605   2.138   0.682   0.977  1.3862  0.5222  0.0781
  108MEL    N00 1606   2.303   2.126   1.280  0.8436 -0.0336  0.0494
  108MEL    C01 1607   2.202   2.127   1.372 -0.4971  0.5774 -0.1721
  108MEL    N02 1608   2.140   2.014   1.387 -0.1116 -0.2589 -0.2276
  108MEL    C03 1609   2.036   2.010   1.474  0.1426  0.2966 -0.0892
  108MEL    N04 1610   1.988   1.890   1.513 -0.2206 -0.6375  0.2478
  108MEL    N05 1611   2.003   2.122   1.545 -0.3412  0.2636  0.7934
  108MEL    C06 1612   2.074   2.234   1.519  0.3624 -0.7239  0.0548
  108MEL    N07 1613   2.037   2.342   1.586  0.1942  0.2399  0.5082
  108MEL    N08 1614   2.178   2.240   1.433  0.0321  0.6493  0.0518
  108MEL    H09 1615   2.329   2.033   1.242  2.6200 -2.6120  1.8596
  108MEL    H0A 1616   2.357   2.210   1.259  0.1409 -0.9257  1.0036
  108MEL    H0B 1617   2.004   1.807   1.463 -0.2443  0.2551 -0.2283
  108MEL    H0C 1618   1.919   1.878   1.586  0.4952 -3.1860 -1.4359
  108MEL    H0D 1619   2.088   2.424   1.595 -0.2093  1.9437  0.1215
  108MEL    H0E 1620   1.954   2.334   1.640  0.1389 -1.4500  1.6299
  109MEL    N00 1621   1.458   0.474   1.937 -0.1012 -0.0706  0.7089
  109MEL    C01 1622   1.372   0.486   2.036  0.6172  0.2959  0.8117
  109MEL    N02 1623   1.311   0.600   2.051  0.0404  0.0539  0.6487
  109MEL    C03 1624   1.211   0.604   2.142 -0.0371  0.9888  0.1424
  109MEL    N04 1625   1.155   0.721   2.166  0.1824  0.1943  0.1344
  109MEL    N05 1626   1.174   0.495   2.211 -0.6864  0.4870 -0.3495
  109MEL    C06 1627   1.249   0.386   2.195 -0.0018  0.4513  0.6877
  109MEL    N07 1628   1.211   0.277   2.270 -1.0042 -0.3937 -0.2909
  109MEL    N08 1629   1.348   0.368   2.104  0.1077 -0.3679 -0.5516
  109MEL    H09 1630   1.471   0.564   1.886  0.1932  0.3927 -0.7601
  109MEL    H0A 1631   1.511   0.384   1.909  1.1349 -3.0349 -0.2914
  109MEL    H0B 1632   1.165   0.799   2.101 -1.7581 -0.7856  2.2054
  109MEL    H0C 1633   1.065   0.717   2.218  0.4529 -1.4106  2.2652
  109MEL    H0D 1634   1.260   0.194   2.267 -1.1358 -0.8401  0.7037
  109MEL    H0E 1635   1.137   0.295   2.341 -2.2045  3.4904  2.6458
  110MEL    N00 1636   0.944   1.724   2.013 -0.6379  0.0354 -0.1095
  110MEL    C01 1637   1.060   1.727   1.944 -0.4824 -0.9585 -0.0731
  110MEL    N02 1638   1.131   1.611   1.935 -0.4774 -0.1727 -0.8274
  110MEL    C03 1639   1.226   1.617   1.841 -0.5990  0.6892  0.7055
  110MEL    N04 1640   1.290   1.502   1.822 -0.1933  0.7979 -0.2933
  110MEL    N05 1641   1.257   1.724   1.764 -0.2783  0.5973 -0.3171
  110MEL    C06 1642   1.176   1.834   1.783  0.5719 -0.4862 -0.1586
  110MEL    N07 1643   1.190   1.946   1.708 -0.4013 -0.6577 -0.4680
  110MEL    N08 1644   1.080   1.836   1.869 -0.3656 -0.1888 -0.1821
  110MEL    H09 1645   0.924   1.631   2.053  0.9252  1.2004  2.2222
  110MEL    H0A 1646   0.891   1.810   2.032  0.0589  1.8250  0.6463
  110MEL    H0B 1647   1.262   1.434   1.889 -1.4493 -0.8584  2.1964
  110MEL    H0C 1648   1.364   1.478   1.753 -1.1611 -0.5631 -2.8242
  110MEL    H0D 1649   1.129   2.023   1.733 -2.0557  1.4609  0.7515
  110MEL    H0E 1650   1.248   1.946   1.627 -2.1288  0.3616 -0.3977
  111MEL    N00 1651   1.500   0.853   2.044 -0.5620  0.3616  0.2673
  111MEL    C01 1652   1.576   0.869   1.929  0.1404 -0.4392 -0.0882
  111MEL    N02 1653   1.626   0.994   1.917 -0.0027  0.0592 -0.1754
  111MEL    C03 1654   1.726   0.996   1.825  0.0919  0.7812  0.1904
  111MEL    N04 1655   1.789   1.116   1.816 -0.1113  0.0962  0.1449
  111MEL    N05 1656   1.764   0.895   1.737  0.2668 -0.2384  0.1647
  111MEL    C06 1657   1.695   0.786   1.753  0.6833  0.4416  0.0288
  111MEL    N07 1658   1.736   0.677   1.683  1.3100  0.3589 -1.0831
  111MEL    N08 1659   1.600   0.762   1.843  1.0163 -0.0314 -0.5333
  111MEL    H09 1660   1.464   0.938   2.084 -0.4129  0.3718 -1.7753
  111MEL    H0A 1661   1.460   0.765   2.068  1.3276 -1.7669 -2.7808
  111MEL    H0B 1662   1.777   1.184   1.889  0.0271 -1.3076 -0.6554
  111MEL    H0C 1663   1.875   1.121   1.759  0.2213 -0.8601 -1.0848
  111MEL    H0D 1664   1.684   0.591   1.705  0.3933  0.5401  1.2954
  111MEL    H0E 1665   1.807   0.681   1.610 -0.7091 -0.0284  0.8328
  112MEL    N00 1666   2.012   2.111   1.954  0.3098  0.2832 -0.0756
  112MEL    C01 1667   1.912   2.106   2.048 -0.3155  0.4164  0.1812
  112MEL    N02 1668   1.848   1.988   2.065  0.4123 -0.6262  0.4928
  112MEL    C03 1669   1.750   1.997   2.155  0.4124  1.1793  0.5418
  112MEL    N04 1670   1.680   1.881   2.167  0.2047 -0.4202 -0.5978
  112MEL    N05 1671   1.715   2.097   2.231 -0.5561 -0.2971  0.5753
  112MEL    C06 1672   1.781   2.212   2.210 -0.2914  0.2601 -0.1736
  112MEL    N07 1673   1.752   2.321   2.280 -0.0260  0.2281  0.2203
  112MEL    N08 1674   1.878   2.219   2.110 -0.5593  0.4064  0.1046
  112MEL    H09 1675   2.045   2.029   1.901 -0.3479  1.2002  0.1730
  112MEL    H0A 1676   2.068   2.196   1.938 -0.6796 -0.1756  0.3227
  112MEL    H0B 1677   1.704   1.799   2.112  0.2774  1.0926 -0.1064
  112MEL    H0C 1678   1.588   1.882   2.219  0.4826  0.9938  3.2703
  112MEL    H0D 1679   1.823   2.398   2.262  0.5022 -0.9300 -0.6390
  112MEL    H0E 1680   1.675   2.323   2.344  0.3530 -1.1772 -2.8396
  113MEL    N00 1681   1.174   1.231   2.611 -0.6972 -0.0098  0.2822
  113MEL    C01 1682   1.082   1.236   2.707 -0.3711 -0.0757  0.1398
  113MEL    N02 1683   1.026   1.358   2.736 -0.5079  0.0996  0.2668
  113MEL    C03 1684   0.927   1.350   2.827 -0.0938  0.1080 -0.5702
  113MEL    N04 1685   0.865   1.459   2.856  0.1704 -0.3549  0.0612
  113MEL    N05 1686   0.890   1.246   2.904 -0.5037 -0.4783  0.3991
  113MEL    C06 1687   0.975   1.139   2.886  0.3009 -1.3836  0.0927
  113MEL    N07 1688   0.947   1.035   2.955 -0.4219 -0.0186 -0.4179
  113MEL    N08 1689   1.075   1.130   2.792 -0.7209  0.6353 -0.4483
  113MEL    H09 1690   1.209   1.313   2.559 -1.5209 -1.3007  2.0252
  113MEL    H0A 1691   1.219   1.142   2.599  0.3305 -0.1756  0.6788
  113MEL    H0B 1692   0.867   1.541   2.791 -0.7297 -2.2676 -4.3887
  113MEL    H0C 1693   0.772   1.445   2.899 -0.4621  1.8704 -2.2235
  113MEL    H0D 1694   1.023   0.968   2.943  1.1689 -0.5587 -0.7639
  113MEL    H0E 1695   0.866   1.022   3.018 -1.4888  1.2318 -0.8532
  114MEL    N00 1696   1.848   0.288   0.055 -0.0090  0.0857  0.4811
  114MEL    C01 1697   1.937   0.279  -0.039 -0.7915 -1.3098 -0.3346
  114MEL    N02 1698   2.005   0.162  -0.047  0.0316 -0.1235  0.0941
  114MEL    C03 1699   2.094   0.158  -0.146  0.2579 -0.4070 -0.0925
  114MEL    N04 1700   2.150   0.036  -0.153 -0.2270 -0.0883  0.5797
  114MEL    N05 1701   2.110   0.254  -0.245  0.7468 -0.1266 -0.6573
  114MEL    C06 1702   2.038   0.362  -0.231  0.1621  0.3461 -0.0902
  114MEL    N07 1703   2.060   0.466  -0.309  0.2833 -0.1642 -0.3061
  114MEL    N08 1704   1.942   0.380  -0.135  0.1098 -0.2937 -0.0146
  114MEL    H09 1705   1.835   0.207   0.121 -2.3661 -2.6877  1.2116
  114MEL    H0A 1706   1.787   0.378   0.057 -1.5965  2.1910 -2.8261
  114MEL    H0B 1707   2.131  -0.031  -0.078 -0.3694  1.2954 -1.6898
  114MEL    H0C 1708   2.220   0.020  -0.228  1.1810  2.4621 -2.3912
  114MEL    H0D 1709   2.022   0.554  -0.294 -0.3928 -0.9121 -0.9729
  114MEL    H0E 1710   2.141   0.450  -0.374  0.8416 -2.4234  0.6399
  115MEL    N00 1711   2.361   1.608   0.035 -0.2851  0.2563 -0.2504
  115MEL    C01 1712   2.464   1.601  -0.045  0.3994 -0.6522  0.3337
  115MEL    N02 1713   2.527   1.721  -0.068 -0.5346 -0.0344  0.0711
  115MEL    C03 1714   2.617   1.714  -0.171  0.0779  0.8729 -0.2896
  115MEL    N04 1715   2.689   1.825  -0.194  0.6422  0.0958  0.7800
  115MEL    N05 1716   2.653   1.603  -0.237  0.2347 -0.0033 -0.7237
  115MEL    C06 1717   2.584   1.492  -0.203  0.5365  0.0173 -0.5545
  115MEL    N07 1718   2.602   1.379  -0.278  0.2492 -0.4269 -0.3586
  115MEL    N08 1719   2.473   1.492  -0.125  0.6301  0.0261 -0.2773
  115MEL    H09 1720   2.341   1.699   0.081  2.0416 -1.4459 -1.1170
  115MEL    H0A 1721   2.305   1.525   0.058  2.1657  0.5431  0.2922
  115MEL    H0B 1722   2.669   1.905  -0.130 -1.9215  0.5417  0.9981
  115MEL    H0C 1723   2.776   1.814  -0.246  2.2076  0.0608  0.1870
  115MEL    H0D 1724   2.532   1.306  -0.278  0.3395  1.2373  2.2893
  115MEL    H0E 1725   2.688   1.373  -0.331  1.9238  0.0980 -0.1524
  116MEL    N00 1726   1.732   0.607   2.611 -0.2481 -0.2967  0.3250
  116MEL    C01 1727   1.635   0.628   2.695 -0.0728  0.1892  0.2176
  116MEL    N02 1728   1.565   0.512   2.711 -0.1371  0.2685 -0.4550
  116MEL    C03 1729   1.461   0.521   2.797 -0.0089  0.2843  0.1044
  116MEL    N04 1730   1.392   0.408   2.818  0.3368 -0.0555  0.1700
  116MEL    N05 1731   1.427   0.631   2.862 -0.0461  0.8028 -0.1091
  116MEL    C06 1732   1.505   0.738   2.844  0.3783 -0.4303 -0.0784
  116MEL    N07 1733   1.474   0.851   2.910  0.0065  0.4811  0.0109
  116MEL    N08 1734   1.607   0.741   2.759  0.1857 -0.7889  0.4059
  116MEL    H09 1735   1.751   0.510   2.591  1.1928 -0.0965  1.1845
  116MEL    H0A 1736   1.804   0.678   2.608  3.0472  0.1400 -0.5543
  116MEL    H0B 1737   1.410   0.323   2.767  1.2397 -1.3036  0.0195
  116MEL    H0C 1738   1.309   0.421   2.873  0.2533 -0.2037  0.0219
  116MEL    H0D 1739   1.534   0.927   2.899 -0.7983  0.4454 -0.5260
  116MEL    H0E 1740   1.399   0.852   2.977  1.3724  0.1392  0.3800
  117MEL    N00 1741   2.061   1.238   0.638  0.6628 -0.2633  0.6557
  117MEL    C01 1742   1.961   1.232   0.721  0.2417  0.5438  0.4851
  117MEL    N02 1743   1.894   1.347   0.731 -0.1122 -0.0465 -0.6766
  117MEL    C03 1744   1.795   1.347   0.820 -1.1237  0.6577  0.0396
  117MEL    N04 1745   1.738   1.464   0.838 -0.0629 -0.4727  0.5036
  117MEL    N05 1746   1.755   1.240   0.900  0.0183 -0.1389 -0.0107
  117MEL    C06 1747   1.847   1.136   0.888  0.0427 -0.2104 -0.5152
  117MEL    N07 1748   1.817   1.020   0.950  0.2936  0.4359  0.1604
  117MEL    N08 1749   1.941   1.121   0.794 -0.1614 -0.6084  0.1141
  117MEL    H09 1750   2.074   1.324   0.587  0.8288 -0.0033  0.6944
  117MEL    H0A 1751   2.127   1.167   0.616  3.3158  2.7141 -2.8110
  117MEL    H0B 1752   1.759   1.536   0.771 -1.7075 -0.4403  0.8206
  117MEL    H0C 1753   1.657   1.478   0.897  1.4473 -0.0465 -1.3570
  117MEL    H0D 1754   1.873   0.938   0.944 -0.2617 -0.7317  1.7613
  117MEL    H0E 1755   1.737   1.026   1.016 -1.8550 -0.5913  0.4694
  118MEL    N00 1756   1.544   0.221   0.705  0.2637  0.0053 -0.2666
  118MEL    C01 1757   1.643   0.227   0.611  0.6334 -0.2257  0.4839
  118MEL    N02 1758   1.708   0.114   0.583  0.9423 -0.0559 -0.0859
  118MEL    C03 1759   1.812   0.126   0.497 -0.0577  0.2079  0.4870
  118MEL    N04 1760   1.892   0.020   0.473 -0.4076 -0.0902  0.1772
  118MEL    N05 1761   1.846   0.244   0.438  0.1947  0.0201 -0.2057
  118MEL    C06 1762   1.766   0.347   0.467 -0.5717 -0.1093 -0.3264
  118MEL    N07 1763   1.778   0.454   0.388  0.2579 -0.7600 -0.4032
  118MEL    N08 1764   1.664   0.349   0.545  0.4627  0.2700 -0.1963
  118MEL    H09 1765   1.516   0.133   0.752  3.1833 -0.1826 -0.2483
  118MEL    H0A 1766   1.503   0.307   0.733  1.0890 -0.9409 -0.0792
  118MEL    H0B 1767   1.878  -0.049   0.540  1.7119  1.3556  0.9309
  118MEL    H0C 1768   1.977   0.029   0.424 -2.9689  1.0307 -0.0002
  118MEL    H0D 1769   1.702   0.524   0.397 -0.6818 -2.0941  2.9372
  118MEL    H0E 1770   1.853   0.466   0.324  0.1971 -1.1437  2.6178
  119MEL    N00 1771   2.073   1.622   0.692  0.7105 -0.4448  0.0667
  119MEL    C01 1772   2.167   1.617   0.593  0.6917  0.0784  0.4134
  119MEL    N02 1773   2.232   1.736   0.575 -0.2175 -0.2918  0.3340
  119MEL    C03 1774   2.323   1.728   0.474 -0.6494 -0.7376  0.2226
  119MEL    N04 1775   2.412   1.832   0.462 -0.2013  0.1122  0.0530
  119MEL    N05 1776   2.351   1.628   0.392 -0.3858 -0.0960  0.3570
  119MEL    C06 1777   2.275   1.524   0.426 -0.0397  1.4923  0.2711
  119MEL    N07 1778   2.310   1.405   0.375 -0.4321  1.3818 -0.2675
  119MEL    N08 1779   2.174   1.513   0.516 -0.2737  0.1307 -0.2118
  119MEL    H09 1780   2.055   1.719   0.724  0.2323 -1.2629 -0.8829
  119MEL    H0A 1781   2.009   1.541   0.707  1.8055  0.1046 -0.2368
  119MEL    H0B 1782   2.404   1.905   0.531  1.3476  1.1572  1.6392
  119MEL    H0C 1783   2.492   1.832   0.397  1.8290  0.5430 -1.6672
  119MEL    H0D 1784   2.240   1.338   0.400  0.3346  0.4860  1.4560
  119MEL    H0E 1785   2.384   1.396   0.309 -0.8391  1.7073  0.9416
  120MEL    N00 1786   2.576   0.644   0.635 -0.3133 -0.0149  0.2872
  120MEL    C01 1787   2.496   0.630   0.735 -0.6386  0.3420 -1.2687
  120MEL    N02 1788   2.435   0.515   0.750  0.2612 -0.5513 -0.6490
  120MEL    C03 1789   2.327   0.512   0.825 -0.2426  0.6700  0.0647
  120MEL    N04 1790   2.259   0.401   0.829 -0.4798  0.1922 -0.6186
  120MEL    N05 1791   2.281   0.622   0.893  0.2208 -0.0923  0.0214
  120MEL    C06 1792   2.365   0.726   0.888 -0.0369 -0.1864  0.7077
  120MEL    N07 1793   2.325   0.829   0.963 -0.9559  0.4349  0.4487
  120MEL    N08 1794   2.475   0.736   0.812  0.4349 -0.2397  0.5291
  120MEL    H09 1795   2.609   0.562   0.583 -0.1624 -0.4486  0.3489
  120MEL    H0A 1796   2.624   0.736   0.624  0.4170 -1.0757  0.0164
  120MEL    H0B 1797   2.295   0.333   0.765 -0.7675  0.8184 -0.6295
  120MEL    H0C 1798   2.165   0.396   0.874  1.3074 -0.3322  2.1958
  120MEL    H0D 1799   2.386   0.911   0.979  1.0277  0.0259  2.3948
  120MEL    H0E 1800   2.240   0.827   1.016  0.6343 -0.3689  0.9564
  121MEL    N00 1801   1.785   1.253   1.336 -0.5323  0.2152 -0.2101
  121MEL    C01 1802   1.674   1.260   1.409  0.2002 -0.6040 -0.2255
  121MEL    N02 1803   1.609   1.376   1.407 -0.3329 -0.3349 -0.2470
  121MEL    C03 1804   1.503   1.377   1.489 -0.0520 -0.2918 -0.1084
  121MEL    N04 1805   1.439   1.496   1.499 -0.0140  0.1582  0.5446
  121MEL    N05 1806   1.456   1.274   1.565  0.8555 -0.1965  0.1053
  121MEL    C06 1807   1.524   1.162   1.553 -0.3098  0.1310  0.3425
  121MEL    N07 1808   1.494   1.047   1.617 -0.2664 -0.2042 -0.2188
  121MEL    N08 1809   1.637   1.157   1.481  0.0012  0.2734 -0.6888
  121MEL    H09 1810   1.834   1.340   1.305  1.0125 -1.3230  1.8431
  121MEL    H0A 1811   1.837   1.168   1.323 -1.2481 -1.1854 -0.9875
  121MEL    H0B 1812   1.467   1.557   1.418 -1.8534 -0.1770  1.1802
  121MEL    H0C 1813   1.344   1.483   1.536 -1.5080  1.1873 -0.9945
  121MEL    H0D 1814   1.558   0.966   1.611 -0.2021 -0.5330  1.2310
  121MEL    H0E 1815   1.410   1.038   1.673  1.1528 -2.4332  0.6892
  122MEL    N00 1816   1.283   0.242   1.360 -0.2843  0.8488  0.0192
  122MEL    C01 1817   1.366   0.228   1.267  0.2640  0.4122  0.1989
  122MEL    N02 1818   1.436   0.111   1.259 -0.1652  0.3850 -0.1950
  122MEL    C03 1819   1.541   0.113   1.174  0.1073 -1.0571 -0.6151
  122MEL    N04 1820   1.609  -0.003   1.159 -0.3067  1.0333 -0.1183
  122MEL    N05 1821   1.584   0.219   1.099  0.2454 -0.4983  0.2598
  122MEL    C06 1822   1.501   0.325   1.113 -0.2462 -0.4278  1.0015
  122MEL    N07 1823   1.523   0.430   1.042 -0.4918 -0.0002 -0.5137
  122MEL    N08 1824   1.393   0.335   1.191 -0.9396 -0.8391  0.3770
  122MEL    H09 1825   1.252   0.153   1.403 -2.6602 -0.5694  1.2112
  122MEL    H0A 1826   1.234   0.333   1.368  0.8569  0.8437 -1.5809
  122MEL    H0B 1827   1.580  -0.072   1.232  1.6365  0.5543  1.0798
  122MEL    H0C 1828   1.706  -0.000   1.133 -1.2982  1.0003  0.9563
  122MEL    H0D 1829   1.474   0.518   1.043  0.0877  1.0816 -1.3514
  122MEL    H0E 1830   1.609   0.422   0.987 -0.1776 -0.8373 -2.6492
  123MEL    N00 1831   1.758   1.613   1.372 -0.3515 -0.9096 -0.1948
  123MEL    C01 1832   1.863   1.617   1.284  0.5768  0.8019  0.4903
  123MEL    N02 1833   1.930   1.732   1.269 -0.1033 -0.0004 -0.4327
  123MEL    C03 1834   2.022   1.738   1.169 -0.5286 -0.0205 -0.0252
  123MEL    N04 1835   2.095   1.849   1.157  0.1860  0.1248 -0.3279
  123MEL    N05 1836   2.052   1.627   1.093 -0.3893 -0.2259 -0.0063
  123MEL    C06 1837   1.986   1.513   1.124 -0.3622 -0.1570 -0.5616
  123MEL    N07 1838   2.005   1.403   1.048  0.8156  0.5507  0.8830
  123MEL    N08 1839   1.885   1.500   1.214 -0.0827 -0.0945  0.1077
  123MEL    H09 1840   1.723   1.699   1.423  3.0206  0.4851 -0.3770
  123MEL    H0A 1841   1.696   1.532   1.380 -0.9091 -1.8227 -1.4353
  123MEL    H0B 1842   2.076   1.923   1.224  2.7066  0.0693  1.8589
  123MEL    H0C 1843   2.185   1.845   1.118 -1.5195 -0.8917  0.2271
  123MEL    H0D 1844   1.940   1.326   1.055 -0.3228  0.9279  1.4497
  123MEL    H0E 1845   2.084   1.395   0.984 -0.6796  2.6967  0.4668
  124MEL    N00 1846   2.301   0.632   1.293 -0.1766 -0.4343  0.1229
  124MEL    C01 1847   2.200   0.630   1.384  0.0862 -0.5048  0.6434
  124MEL    N02 1848   2.135   0.513   1.398  1.1332 -0.0805 -0.0303
  124MEL    C03 1849   2.037   0.514   1.489  0.1178  0.1599  0.6120
  124MEL    N04 1850   1.966   0.403   1.508 -0.7086  0.5296 -0.5787
  124MEL    N05 1851   1.999   0.622   1.564 -0.3709  0.7661  0.2703
  124MEL    C06 1852   2.082   0.727   1.551  0.4176 -0.4529 -0.1627
  124MEL    N07 1853   2.049   0.828   1.635 -0.5168 -0.2065  0.8118
  124MEL    N08 1854   2.192   0.734   1.471 -0.5700  0.2311  0.1208
  124MEL    H09 1855   2.327   0.554   1.237  0.8318 -2.7355 -0.8941
  124MEL    H0A 1856   2.364   0.709   1.291 -1.2307  2.0223  0.8329
  124MEL    H0B 1857   1.978   0.330   1.436 -1.5470  0.2064 -1.2366
  124MEL    H0C 1858   1.870   0.410   1.545 -3.1473 -1.6923 -2.1576
  124MEL    H0D 1859   2.114   0.903   1.646 -1.2557 -2.7497  1.4972
  124MEL    H0E 1860   1.967   0.828   1.690  2.4316 -0.1138 -1.4270
  125MEL    N00 1861   1.481   1.250   1.946 -0.5080 -0.1441  0.0754
  125MEL    C01 1862   1.391   1.247   2.043 -0.8258  0.1842  0.1479
  125MEL    N02 1863   1.319   1.357   2.059 -0.2111 -0.6924 -0.0137
  125MEL    C03 1864   1.215   1.344   2.146 -0.0126 -0.8734 -0.2550
  125MEL    N04 1865   1.139   1.449   2.166  0.0119  0.4165 -0.1605
  125MEL    N05 1866   1.181   1.229   2.202  0.0387  0.0998  0.1635
  125MEL    C06 1867   1.262   1.127   2.188 -0.9847  0.8436  0.3135
  125MEL    N07 1868   1.236   1.021   2.260 -0.4250 -0.3542 -0.2043
  125MEL    N08 1869   1.371   1.132   2.105  0.2817 -0.2278  0.2731
  125MEL    H09 1870   1.503   1.333   1.888  0.8694 -0.4221 -0.4202
  125MEL    H0A 1871   1.540   1.164   1.930  1.3582  2.1429 -0.5929
  125MEL    H0B 1872   1.157   1.530   2.113  1.0076 -3.3444  1.2790
  125MEL    H0C 1873   1.054   1.444   2.222 -0.5577 -0.5020  0.7710
  125MEL    H0D 1874   1.301   0.945   2.257 -0.3200  2.4688  2.5545
  125MEL    H0E 1875   1.167   1.025   2.331  4.2408 -1.5975 -1.9647
  126MEL    N00 1876   0.960   0.198   1.999  0.7446 -0.4596  0.7504
  126MEL    C01 1877   1.052   0.203   1.900 -0.0420 -0.2249  0.0191
  126MEL    N02 1878   1.128   0.091   1.885 -0.4565 -0.4196 -0.9154
  126MEL    C03 1879   1.236   0.117   1.808 -0.7818  0.4488 -0.5479
  126MEL    N04 1880   1.312   0.012   1.786  0.4157  0.2635 -0.5240
  126MEL    N05 1881   1.269   0.231   1.742  0.3230  0.1101 -0.0065
  126MEL    C06 1882   1.177   0.330   1.760 -0.2200  0.3419  0.3253
  126MEL    N07 1883   1.188   0.451   1.696 -0.4852 -0.2311  0.4296
  126MEL    N08 1884   1.063   0.322   1.834 -0.1450 -0.4359 -0.1037
  126MEL    H09 1885   0.923   0.111   2.042 -1.0964  0.2616  4.1217
  126MEL    H0A 1886   0.917   0.284   2.025  2.9461  0.4811  2.5116
  126MEL    H0B 1887   1.292  -0.075   1.841  1.3931 -0.7581  0.7676
  126MEL    H0C 1888   1.403   0.021   1.743  0.2667  0.2243  1.6748
  126MEL    H0D 1889   1.122   0.522   1.701 -0.5885 -0.8337  1.2967
  126MEL    H0E 1890   1.270   0.462   1.633 -1.6086 -2.5425  1.6283
  127MEL    N00 1891   1.501   1.613   2.036  0.0581  0.3435 -0.8536
  127MEL    C01 1892   1.589   1.610   1.935 -0.3322 -0.6015 -0.0474
  127MEL    N02 1893   1.653   1.727   1.925  0.1749 -0.8007  0.1832
  127MEL    C03 1894   1.747   1.730   1.830  0.0719 -0.4928 -0.9165
  127MEL    N04 1895   1.815   1.840   1.836  0.2212 -0.4476  0.3478
  127MEL    N05 1896   1.800   1.632   1.760  0.2027  0.3606 -0.3510
  127MEL    C06 1897   1.728   1.515   1.782 -0.3133  0.3815 -0.4427
  127MEL    N07 1898   1.764   1.406   1.712  0.0980 -0.4692 -0.0849
  127MEL    N08 1899   1.617   1.498   1.863  0.7956  0.0153  0.1338
  127MEL    H09 1900   1.476   1.703   2.082  1.7873  0.7285 -0.1407
  127MEL    H0A 1901   1.446   1.527   2.035  0.2317 -0.2019  1.1351
  127MEL    H0B 1902   1.800   1.906   1.917  0.7021 -0.2166  1.0193
  127MEL    H0C 1903   1.904   1.815   1.796 -1.7033  1.8489  1.1529
  127MEL    H0D 1904   1.704   1.328   1.717  0.9654 -0.8547  1.0648
  127MEL    H0E 1905   1.849   1.402   1.652 -0.7554 -0.7212  0.6395
  128MEL    N00 1906   1.989   0.633   1.947  0.5523  0.1708 -1.2453
  128MEL    C01 1907   1.889   0.629   2.039 -0.9720 -0.7476  0.3545
  128MEL    N02 1908   1.831   0.507   2.041 -0.2028  0.0927  0.2294
  128MEL    C03 1909   1.732   0.502   2.136  0.2577  0.0688 -0.5042
  128MEL    N04 1910   1.670   0.385   2.144  0.0874 -0.3367 -0.6669
  128MEL    N05 1911   1.696   0.599   2.227 -0.0836  0.3774  0.0635
  128MEL    C06 1912   1.769   0.717   2.211  0.7710  0.6376 -0.0259
  128MEL    N07 1913   1.739   0.822   2.293  0.0776  0.4756  0.2788
  128MEL    N08 1914   1.876   0.730   2.131 -0.1023 -0.4307 -0.7403
  128MEL    H09 1915   2.016   0.550   1.894  1.1453  0.6737 -2.0635
  128MEL    H0A 1916   2.054   0.713   1.931  0.9878 -0.0039 -0.7952
  128MEL    H0B 1917   1.680   0.315   2.075  0.3314 -0.5192 -0.7662
  128MEL    H0C 1918   1.594   0.384   2.205 -0.7242 -0.3963  2.0322
  128MEL    H0D 1919   1.802   0.904   2.284 -0.9291  1.5007  0.9916
  128MEL    H0E 1920   1.654   0.827   2.352 -0.7564  1.0998 -3.0480
  129MEL    N00 1921   1.183   2.031   2.639 -0.8105  0.0789  0.4244
  129MEL    C01 1922   1.094   2.025   2.731  0.0675  0.6642 -0.1257
  129MEL    N02 1923   1.029   2.140   2.750 -0.3841 -0.0586 -0.3935
  129MEL    C03 1924   0.938   2.130   2.849 -0.8888  0.0459 -0.9042
  129MEL    N04 1925   0.870   2.238   2.881 -0.2572 -0.1273  0.5562
  129MEL    N05 1926   0.905   2.017   2.915  0.3034 -0.5632 -0.4496
  129MEL    C06 1927   0.971   1.906   2.869 -1.1279 -0.5167  0.0123
  129MEL    N07 1928   0.952   1.792   2.936  0.2180 -0.2517 -0.2228
  129MEL    N08 1929   1.074   1.910   2.790  0.2878  0.6542 -0.2402
  129MEL    H09 1930   1.221   2.122   2.603 -0.9692  1.7345 -1.8603
  129MEL    H0A 1931   1.220   1.939   2.624 -0.1798 -0.9442  3.1913
  129MEL    H0B 1932   0.867   2.310   2.804  0.6659  0.6266  1.1443
  129MEL    H0C 1933   0.783   2.226   2.934 -1.8468 -1.3637 -2.1866
  129MEL    H0D 1934   1.007   1.707   2.928  2.1557 -1.5645  1.5677
  129MEL    H0E 1935   0.872   1.795   2.999  2.1227  1.3289 -0.2033
  130MEL    N00 1936   1.863   1.008   0.053 -0.1494  0.1383  0.1713
  130MEL    C01 1937   1.944   0.996  -0.057  0.1954  0.4314 -0.2911
  130MEL    N02 1938   2.009   0.878  -0.067 -0.6827 -0.1353  0.5840
  130MEL    C03 1939   2.091   0.871  -0.171 -0.1478 -0.3612 -1.2824
  130MEL    N04 1940   2.162   0.758  -0.175 -0.4052 -0.2700  0.2042
  130MEL    N05 1941   2.118   0.974  -0.253  0.2129  0.1828  0.9431
  130MEL    C06 1942   2.053   1.087  -0.232  0.3547  0.1219  0.3701
  130MEL    N07 1943   2.071   1.187  -0.314  1.1503  0.2923  0.2075
  130MEL    N08 1944   1.959   1.105  -0.138 -0.3837 -0.5192 -0.2896
  130MEL    H09 1945   1.845   0.927   0.112 -0.2829 -0.0872 -0.2473
  130MEL    H0A 1946   1.804   1.091   0.067 -0.1926 -2.7133  0.9427
  130MEL    H0B 1947   2.144   0.686  -0.099 -1.7274 -1.7917  4.2875
  130MEL    H0C 1948   2.248   0.747  -0.227 -0.5772 -1.6429  0.7851
  130MEL    H0D 1949   2.004   1.261  -0.323  1.0830 -0.5900 -4.2277
  130MEL    H0E 1950   2.148   1.190  -0.378  0.9466  0.5169  0.0054
  131MEL    N00 1951   2.352   0.140   0.034  0.3291  0.2801 -0.2647
  131MEL    C01 1952   2.448   0.139  -0.067 -0.3915 -0.5197 -0.0747
  131MEL    N02 1953   2.515   0.262  -0.080  0.6562  0.5088 -0.3314
  131MEL    C03 1954   2.609   0.254  -0.178  0.2868  0.1240 -0.7795
  131MEL    N04 1955   2.679   0.363  -0.197 -0.1673 -0.2090 -0.1553
  131MEL    N05 1956   2.648   0.145  -0.252 -0.0254 -0.1447 -0.0192
  131MEL    C06 1957   2.579   0.031  -0.220  0.3376  0.1914 -0.1709
  131MEL    N07 1958   2.614  -0.082  -0.275  0.4017 -0.0592  0.2850
  131MEL    N08 1959   2.481   0.023  -0.132  0.3438  0.4329  0.3301
  131MEL    H09 1960   2.325   0.230   0.078 -1.5564 -0.7727 -1.0470
  131MEL    H0A 1961   2.305   0.051   0.058 -0.2620  2.7487 -1.6150
  131MEL    H0B 1962   2.659   0.440  -0.130 -3.7347  0.5131  1.4237
  131MEL    H0C 1963   2.770   0.343  -0.246  0.8041 -0.5442 -1.9627
  131MEL    H0D 1964   2.563  -0.162  -0.240  0.9038  1.3200  0.0321
  131MEL    H0E 1965   2.694  -0.101  -0.341  0.3773  1.5670  0.3842
  132MEL    N00 1966   1.715   1.346   2.638 -0.1074  0.0252 -0.1493
  132MEL    C01 1967   1.617   1.355   2.729 -0.0841 -0.4979 -0.4371
  132MEL    N02 1968   1.544   1.241   2.738  0.4838 -0.2700 -0.3491
  132MEL    C03 1969   1.432   1.238   2.817  0.7449  0.2999 -0.3679
  132MEL    N04 1970   1.358   1.126   2.827  0.0906 -0.1904 -0.2640
  132MEL    N05 1971   1.403   1.344   2.898 -0.0013  0.0053 -0.1645
  132MEL    C06 1972   1.480   1.455   2.879 -0.1208  0.4543 -0.0898
  132MEL    N07 1973   1.443   1.566   2.943 -0.3163 -0.2049  0.2685
  132MEL    N08 1974   1.592   1.468   2.806 -0.9527  0.1134 -0.0752
  132MEL    H09 1975   1.750   1.264   2.586  0.9205  1.4316  0.6639
  132MEL    H0A 1976   1.757   1.431   2.616  1.0433  0.2389 -2.2602
  132MEL    H0B 1977   1.377   1.050   2.756  3.1645 -0.6473 -1.2154
  132MEL    H0C 1978   1.277   1.132   2.892 -2.6999  0.2509  3.1887
  132MEL    H0D 1979   1.511   1.639   2.932 -0.8565 -0.1427 -1.2979
  132MEL    H0E 1980   1.362   1.574   3.009  1.7352  0.0451  0.9382
  133MEL    N00 1981   2.064   1.985   0.600 -0.4745 -0.1336  0.4679
  133MEL    C01 1982   1.962   1.981   0.684  0.8770 -0.3547  0.3378
  133MEL    N02 1983   1.909   2.106   0.711  0.2137 -0.0550  0.5702
  133MEL    C03 1984   1.823   2.108   0.818 -0.0766 -0.4546 -0.5062
  133MEL    N04 1985   1.772   2.229   0.848  0.4213 -0.6629  0.2475
  133MEL    N05 1986   1.785   2.005   0.895 -0.3075 -0.1279  0.3636
  133MEL    C06 1987   1.852   1.886   0.861  0.0235  0.3710  0.2214
  133MEL    N07 1988   1.812   1.776   0.923 -0.9312 -0.1851 -0.1509
  133MEL    N08 1989   1.943   1.866   0.757  0.1828  0.1540  0.2399
  133MEL    H09 1990   2.095   2.075   0.561  0.0635 -1.9737  0.1903
  133MEL    H0A 1991   2.117   1.905   0.583  0.2217 -1.7047  0.5761
  133MEL    H0B 1992   1.793   2.312   0.783 -0.4206  0.6924  0.8703
  133MEL    H0C 1993   1.701   2.233   0.918 -1.0319 -1.7783 -3.5135
  133MEL    H0D 1994   1.858   1.690   0.895 -0.2125 -0.2174  0.9583
  133MEL    H0E 1995   1.754   1.781   1.002  3.0512  1.4995  0.9085
  134MEL    N00 1996   1.552   0.988   0.733  0.4522 -0.4817  0.4849
  134MEL    C01 1997   1.637   0.984   0.627 -0.3889 -0.2076  0.2293
  134MEL    N02 1998   1.697   0.865   0.609 -0.9391 -0.7742 -0.2335
  134MEL    C03 1999   1.782   0.865   0.506 -0.1807  0.4375  0.4589
  134MEL    N04 2000   1.852   0.753   0.482 -0.1673  0.1642 -0.0276
  134MEL    N05 2001   1.830   0.969   0.437  0.1747  0.1049  0.3451
  134MEL    C06 2002   1.767   1.084   0.477  0.3095 -0.0103 -0.5550
  134MEL    N07 2003   1.804   1.196   0.415  0.6142  0.6038 -0.3272
  134MEL    N08 2004   1.659   1.094   0.555  0.1714 -0.6525 -0.2379
  134MEL    H09 2005   1.521   0.895   0.771  0.6473  2.1480  1.4607
  134MEL    H0A 2006   1.513   1.079   0.762  1.7713 -1.1423 -0.0168
  134MEL    H0B 2007   1.857   0.677   0.550  0.7520 -2.3301 -0.4025
  134MEL    H0C 2008   1.942   0.771   0.431  1.3402 -0.4924 -2.8949
  134MEL    H0D 2009   1.748   1.281   0.437  0.1420  0.6916 -0.6300
  134MEL    H0E 2010   1.885   1.207   0.349 -0.7799 -0.6650  3.0567
  135MEL    N00 2011   2.081   0.123   0.691  0.0322  0.4055 -0.3420
  135MEL    C01 2012   2.175   0.127   0.601 -0.7045  0.2400  0.3758
  135MEL    N02 2013   2.245   0.244   0.595 -0.7256 -0.6961 -0.0259
  135MEL    C03 2014   2.347   0.238   0.503 -0.2049  0.1635 -0.2523
  135MEL    N04 2015   2.420   0.354   0.485 -0.3568  0.1679 -0.1755
  135MEL    N05 2016   2.381   0.128   0.430  1.0699 -0.3595  0.0853
  135MEL    C06 2017   2.300   0.022   0.447 -0.5241  0.0326  0.6551
  135MEL    N07 2018   2.334  -0.090   0.385 -0.3720  0.5631 -0.0844
  135MEL    N08 2019   2.198   0.010   0.535  0.3862  0.2537 -1.0671
  135MEL    H09 2020   2.055   0.197   0.748  0.9722 -1.3607  3.4189
  135MEL    H0A 2021   2.039   0.031   0.699 -0.9975  2.1449  0.7893
  135MEL    H0B 2022   2.400   0.434   0.546  3.1021  1.0434 -0.4016
  135MEL    H0C 2023   2.509   0.351   0.443 -0.5104 -0.1152  1.8494
  135MEL    H0D 2024   2.274  -0.172   0.394  1.3644  0.4448 -0.1770
  135MEL    H0E 2025   2.418  -0.091   0.321  0.9741  0.4090 -1.0118
  136MEL    N00 2026   2.552   1.355   0.635 -0.9897  0.3261 -0.0642
  136MEL    C01 2027   2.453   1.357   0.722 -0.5202  0.7568  0.1415
  136MEL    N02 2028   2.391   1.243   0.750  0.6986  0.1641 -0.0863
  136MEL    C03 2029   2.292   1.251   0.843  0.9210  0.0463 -0.6611
  136MEL    N04 2030   2.225   1.138   0.865 -0.2320  0.0967  0.6098
  136MEL    N05 2031   2.253   1.357   0.915 -0.1147  0.3960  0.3716
  136MEL    C06 2032   2.321   1.471   0.874  0.0730  0.1614 -0.2483
  136MEL    N07 2033   2.287   1.591   0.928 -0.6624  0.3090  0.9087
  136MEL    N08 2034   2.428   1.471   0.789 -0.0513 -0.5197 -0.2886
  136MEL    H09 2035   2.596   1.272   0.597 -1.5168  1.8230  1.0964
  136MEL    H0A 2036   2.603   1.439   0.607 -3.1238  0.0519 -0.8284
  136MEL    H0B 2037   2.245   1.060   0.805  0.1489  0.4608 -0.9922
  136MEL    H0C 2038   2.149   1.143   0.931 -3.8984 -0.3059 -0.7161
  136MEL    H0D 2039   2.345   1.678   0.916  0.2068  0.5371 -0.1860
  136MEL    H0E 2040   2.200   1.593   0.978  1.1897 -2.0505  1.9201
  137MEL    N00 2041   1.767   1.977   1.318  0.2681 -0.5255  0.5940
  137MEL    C01 2042   1.671   1.986   1.408  0.1018  0.2518  0.1329
  137MEL    N02 2043   1.612   2.106   1.421  0.3065 -0.3218 -0.3546
  137MEL    C03 2044   1.511   2.102   1.516 -1.4820  0.4757 -0.1216
  137MEL    N04 2045   1.440   2.211   1.528  0.3388  0.3681  0.1478
  137MEL    N05 2046   1.469   1.996   1.584 -0.8548 -0.1164 -0.1335
  137MEL    C06 2047   1.539   1.885   1.563  0.4244 -0.1268 -0.4904
  137MEL    N07 2048   1.499   1.774   1.623  0.0202  0.9288  0.2221
  137MEL    N08 2049   1.639   1.871   1.475 -0.0629  0.4052  0.1262
  137MEL    H09 2050   1.803   2.056   1.263 -0.7155 -0.0939 -0.5531
  137MEL    H0A 2051   1.813   1.892   1.315  0.7291  0.5260  0.1192
  137MEL    H0B 2052   1.467   2.287   1.463  2.6854  2.4874  0.6517
  137MEL    H0C 2053   1.349   2.201   1.567  1.6380 -1.0739 -4.2164
  137MEL    H0D 2054   1.568   1.705   1.631  1.1405  2.8910 -0.7951
  137MEL    H0E 2055   1.427   1.795   1.690  1.8734  0.8612 -0.3187
  138MEL    N00 2056   1.258   1.024   1.379 -0.3015 -0.1872  0.4668
  138MEL    C01 2057   1.355   1.015   1.285 -0.5923  0.2527  0.0859
  138MEL    N02 2058   1.412   0.895   1.274  0.2859  0.2125 -0.0612
  138MEL    C03 2059   1.516   0.889   1.188 -0.0061  0.3535 -0.0070
  138MEL    N04 2060   1.586   0.776   1.178 -0.2039  0.5707 -0.3832
  138MEL    N05 2061   1.560   0.995   1.116 -0.7633  0.1379  0.0367
  138MEL    C06 2062   1.483   1.107   1.131  0.2625  0.2830 -0.2364
  138MEL    N07 2063   1.520   1.209   1.054  0.1051  0.5294 -0.2961
  138MEL    N08 2064   1.375   1.118   1.205 -0.9210 -0.5614 -0.0748
  138MEL    H09 2065   1.245   0.943   1.431  0.2751 -0.7623 -1.2632
  138MEL    H0A 2066   1.195   1.106   1.393  1.9528 -1.7797 -1.3151
  138MEL    H0B 2067   1.581   0.703   1.244 -1.9710 -0.7029 -1.2924
  138MEL    H0C 2068   1.676   0.791   1.127 -0.0407  0.5421 -1.3844
  138MEL    H0D 2069   1.466   1.296   1.047 -1.1761 -0.2680 -0.2434
  138MEL    H0E 2070   1.603   1.197   0.988  2.1330 -1.2335 -0.6283
  139MEL    N00 2071   1.774   0.108   1.364 -0.3243  0.3127 -0.0436
  139MEL    C01 2072   1.870   0.122   1.271 -0.0499 -0.3116 -0.0303
  139MEL    N02 2073   1.935   0.244   1.269  0.4888 -0.2692  0.5346
  139MEL    C03 2074   2.036   0.251   1.183 -0.3285 -0.9555 -0.3527
  139MEL    N04 2075   2.094   0.364   1.154  1.0705  0.5292  0.1334
  139MEL    N05 2076   2.086   0.145   1.106 -0.3161  0.1145 -0.0490
  139MEL    C06 2077   2.017   0.030   1.126 -0.9186  0.3021  0.2040
  139MEL    N07 2078   2.055  -0.077   1.059  0.1531 -0.0074 -0.1753
  139MEL    N08 2079   1.902   0.011   1.199 -0.1510 -0.4684 -0.1169
  139MEL    H09 2080   1.743   0.197   1.409  1.2656  1.2730  1.6844
  139MEL    H0A 2081   1.721   0.017   1.371  0.3694  2.0137  0.8190
  139MEL    H0B 2082   2.066   0.440   1.210  1.5191 -1.3482 -0.7739
  139MEL    H0C 2083   2.181   0.353   1.107 -2.3636 -0.7650 -0.5928
  139MEL    H0D 2084   2.007  -0.163   1.069 -2.5622 -0.7499  0.2426
  139MEL    H0E 2085   2.139  -0.065   1.007 -1.9888 -0.6537 -1.1850
  140MEL    N00 2086   2.289   1.354   1.292  0.7578 -0.4707 -0.1942
  140MEL    C01 2087   2.189   1.366   1.381 -0.0911  0.3909  0.4180
  140MEL    N02 2088   2.122   1.248   1.406 -0.1497  0.7951  0.0612
  140MEL    C03 2089   2.028   1.259   1.502 -0.2804 -0.5090 -0.2808
  140MEL    N04 2090   1.959   1.149   1.529  0.2924 -0.0693  0.0878
  140MEL    N05 2091   2.003   1.376   1.571  0.2706  0.6083  0.3587
  140MEL    C06 2092   2.077   1.483   1.542  0.2590 -0.5099  0.0554
  140MEL    N07 2093   2.051   1.592   1.614 -0.3247  0.1600 -0.1133
  140MEL    N08 2094   2.176   1.484   1.452 -0.1753  0.2716  0.3216
  140MEL    H09 2095   2.339   1.267   1.271  0.6748 -0.0242  1.6855
  140MEL    H0A 2096   2.337   1.439   1.272 -1.2215  2.4159 -1.0046
  140MEL    H0B 2097   1.973   1.073   1.463 -3.9380  2.1583  1.3545
  140MEL    H0C 2098   1.873   1.145   1.586 -1.3172 -1.7388 -2.9066
  140MEL    H0D 2099   2.125   1.664   1.614  1.2169 -0.4162 -0.2121
  140MEL    H0E 2100   1.979   1.594   1.686  1.8072  0.6889 -0.4416
  141MEL    N00 2101   1.486   1.986   1.972  0.0899 -0.7981  0.4549
  141MEL    C01 2102   1.384   1.996   2.047  0.4786  0.4692 -1.0415
  141MEL    N02 2103   1.335   2.121   2.058 -0.7923 -0.3618 -0.9298
  141MEL    C03 2104   1.235   2.126   2.151 -0.1165 -0.0665  0.2867
  141MEL    N04 2105   1.154   2.235   2.145  0.1009  0.3269 -0.2856
  141MEL    N05 2106   1.192   2.029   2.231 -0.4275 -0.0428 -0.1921
  141MEL    C06 2107   1.261   1.905   2.211 -0.2508 -0.3719  0.3603
  141MEL    N07 2108   1.221   1.791   2.275 -0.3416 -0.4210 -0.1167
  141MEL    N08 2109   1.360   1.887   2.124 -0.5166  0.5081  0.1761
  141MEL    H09 2110   1.505   2.074   1.925  0.0098 -1.4707 -1.5292
  141MEL    H0A 2111   1.544   1.903   1.963 -0.8783  0.2449  1.4622
  141MEL    H0B 2112   1.172   2.295   2.064 -2.0419 -2.6297 -0.0505
  141MEL    H0C 2113   1.063   2.230   2.179  0.3292  0.0540  1.5750
  141MEL    H0D 2114   1.267   1.703   2.257 -0.7418 -1.9995  1.8874
  141MEL    H0E 2115   1.140   1.788   2.331  1.5738 -0.2563 -2.1095
  142MEL    N00 2116   0.973   1.018   2.043  0.2552  0.4057  0.2589
  142MEL    C01 2117   1.061   1.005   1.944 -0.2249 -0.7943 -0.1884
  142MEL    N02 2118   1.124   0.888   1.941 -0.2266  0.1069  0.2707
  142MEL    C03 2119   1.215   0.875   1.844 -0.0275 -0.0341  0.0258
  142MEL    N04 2120   1.279   0.764   1.829 -0.3042  0.0121 -0.4477
  142MEL    N05 2121   1.245   0.973   1.756 -0.0836  0.6882  0.0873
  142MEL    C06 2122   1.175   1.086   1.775  0.4076 -0.2655 -0.4580
  142MEL    N07 2123   1.205   1.199   1.705 -0.2886  0.2996 -0.3950
  142MEL    N08 2124   1.077   1.111   1.860  0.9628 -0.3726 -0.5456
  142MEL    H09 2125   0.948   0.936   2.098 -1.5037  1.4914 -0.5180
  142MEL    H0A 2126   0.935   1.109   2.064 -1.6159 -0.3479 -0.5114
  142MEL    H0B 2127   1.271   0.696   1.905 -0.4397  0.9763 -0.0597
  142MEL    H0C 2128   1.353   0.748   1.762 -0.7375 -1.2378 -0.0740
  142MEL    H0D 2129   1.162   1.288   1.744 -0.0155 -0.1180 -1.5695
  142MEL    H0E 2130   1.273   1.222   1.639  1.5694 -0.7953 -1.6967
  143MEL    N00 2131   1.488   0.141   2.002  0.2982  0.4934 -0.6113
  143MEL    C01 2132   1.582   0.145   1.902  0.3862 -0.2512 -0.0084
  143MEL    N02 2133   1.650   0.264   1.884  0.4939  0.3416 -0.0274
  143MEL    C03 2134   1.758   0.251   1.808 -0.4067 -0.7102 -0.3074
  143MEL    N04 2135   1.837   0.362   1.795  0.4994  0.4465 -0.3725
  143MEL    N05 2136   1.800   0.140   1.743 -0.1617  0.7104  0.0432
  143MEL    C06 2137   1.725   0.028   1.764 -0.1037 -0.1728  0.4572
  143MEL    N07 2138   1.763  -0.086   1.708  0.2386  0.0644 -0.3395
  143MEL    N08 2139   1.618   0.029   1.844 -0.2004 -0.7608  0.3629
  143MEL    H09 2140   1.457   0.232   2.039 -0.1811 -2.0016  0.5025
  143MEL    H0A 2141   1.438   0.052   2.031  0.2365  1.2138  1.2166
  143MEL    H0B 2142   1.808   0.434   1.860 -0.0124 -0.7098 -1.5662
  143MEL    H0C 2143   1.932   0.335   1.769  0.0604  1.7453 -3.0810
  143MEL    H0D 2144   1.699  -0.168   1.711  0.7805 -1.6345 -2.0580
  143MEL    H0E 2145   1.854  -0.096   1.658  0.0054 -1.5374  4.3092
  144MEL    N00 2146   2.015   1.364   1.970  0.1379 -0.0752 -0.0963
  144MEL    C01 2147   1.907   1.366   2.048  0.1387  0.2909  0.5634
  144MEL    N02 2148   1.841   1.249   2.056  0.2271  0.4829  0.2064
  144MEL    C03 2149   1.741   1.248   2.145  0.4957 -0.0312  0.1578
  144MEL    N04 2150   1.668   1.133   2.147 -0.1402  0.5979 -0.4736
  144MEL    N05 2151   1.709   1.345   2.232 -0.5215 -0.5003  0.0725
  144MEL    C06 2152   1.787   1.457   2.218 -0.6577 -0.1580  0.4993
  144MEL    N07 2153   1.755   1.562   2.279  0.1557 -1.2222 -1.0005
  144MEL    N08 2154   1.888   1.472   2.130 -0.3174 -0.2382  0.0240
  144MEL    H09 2155   2.059   1.288   1.918  1.6055 -1.1786 -1.0095
  144MEL    H0A 2156   2.069   1.451   1.972 -3.5565  2.5455  0.2855
  144MEL    H0B 2157   1.689   1.058   2.081  1.7001 -0.2106 -1.7212
  144MEL    H0C 2158   1.575   1.130   2.186  0.4791 -1.4353 -1.5023
  144MEL    H0D 2159   1.807   1.650   2.276  0.9874  1.6340 -0.6166
  144MEL    H0E 2160   1.679   1.549   2.341  1.8487  0.4068  0.2026
   3.12990   2.23740   2.65908   0.00000   0.00000   0.00000   0.00000  -1.14520   0.00000
