;=====================================================================
; melamine_refined.itp
; Melamine (1,3,5-triazine-2,4,6-triamine) - OPLS-AA
;
; BASE: LigParGen 1.14*CM1A-LBCC (charges, LJ, dihedrals UNCHANGED)
;
; MODIFICATIONS (bonded terms only):
;   [A] Equilibrium geometry r0, theta0 from COD 2205105
;       Cousson, Nicolai & Fillaux, Acta Cryst. E 61 (2005) o222
;       14 K neutron diffraction
;   [B] Stretch force constants from Fernandez-Liencres, Navarro,
;       Lopez-Gonzalez, Fernandez-Gomez, Tomkinson & Kearley,
;       Chem. Phys. 266 (2001) 1-17, Table 4 (refined values)
;
; UNIT CONVERSION USED:
;   1 aJ/A^2 = 1e-18 J * 6.02214e23 /mol * 100 nm^-2
;            = 60221.4 kJ mol^-1 nm^-2
;   Both F (spectroscopic) and kb (GROMACS) use V = 1/2 k dr^2,
;   so the conversion is direct with no factor of 2.
;
; DERIVATIONS (see notes at bottom of file)
;   f(N-H)    = 6.545 aJ/A^2  -> 394150 kJ/mol/nm^2
;   f(C-Na)   = 7.816 aJ/A^2  -> 470690 kJ/mol/nm^2
;   f(ring)   = ~7.8  aJ/A^2  -> 469700 (NOT uniquely determined - see notes)
;
; STAGING: apply in this order, re-running EM + NVT between stages,
; and check the vDoS after each:
;   Stage 1 = [A] geometry only        (highest confidence)
;   Stage 2 = [A] + N-H kb             (rigorously derived)
;   Stage 3 = [A] + N-H + C-Na kb      (2x2 solve, well founded)
;   Stage 4 = + ring kb                (SPECULATIVE - may worsen ~1710)
;
; Stage 3 is the recommended default. Ring kb is commented out.
;=====================================================================

[ atomtypes ]
  opls_812  H812     1.0080     0.000    A    0.00000E+00   0.00000E+00
  opls_803  C803    12.0110     0.000    A    3.55000E-01   2.92880E-01
  opls_808  N808    14.0070     0.000    A    3.25000E-01   7.11280E-01
  opls_805  N805    14.0070     0.000    A    3.25000E-01   7.11280E-01
  opls_814  H814     1.0080     0.000    A    0.00000E+00   0.00000E+00
  opls_802  N802    14.0070     0.000    A    3.25000E-01   7.11280E-01
  opls_806  C806    12.0110     0.000    A    3.55000E-01   2.92880E-01
  opls_800  N800    14.0070     0.000    A    3.25000E-01   7.11280E-01
  opls_813  H813     1.0080     0.000    A    0.00000E+00   0.00000E+00
  opls_811  H811     1.0080     0.000    A    0.00000E+00   0.00000E+00
  opls_809  H809     1.0080     0.000    A    0.00000E+00   0.00000E+00
  opls_807  N807    14.0070     0.000    A    3.25000E-01   7.11280E-01
  opls_801  C801    12.0110     0.000    A    3.55000E-01   2.92880E-01
  opls_810  H810     1.0080     0.000    A    0.00000E+00   0.00000E+00
  opls_804  N804    14.0070     0.000    A    3.25000E-01   7.11280E-01

[ moleculetype ]
; Name               nrexcl
MEL                   3

;---------------------------------------------------------------------
; ATOMS - UNCHANGED from LigParGen.
; Charges sum to -0.0001 e per molecule (rounding).
; For PME, add +0.0001 to H0E to force exact neutrality:
;   change 0.4537 -> 0.4538 on atom 15.
;---------------------------------------------------------------------
[ atoms ]
;   nr       type  resnr residue  atom   cgnr     charge       mass
     1   opls_800      1    MEL   N00      1    -0.8750    14.0070   ; amino N
     2   opls_801      1    MEL   C01      1     0.7772    12.0110   ; ring C
     3   opls_802      1    MEL   N02      1    -0.8005    14.0070   ; ring N
     4   opls_803      1    MEL   C03      1     0.7815    12.0110   ; ring C
     5   opls_804      1    MEL   N04      1    -0.8862    14.0070   ; amino N
     6   opls_805      1    MEL   N05      1    -0.7911    14.0070   ; ring N
     7   opls_806      1    MEL   C06      1     0.7848    12.0110   ; ring C
     8   opls_807      1    MEL   N07      1    -0.8963    14.0070   ; amino N
     9   opls_808      1    MEL   N08      1    -0.7987    14.0070   ; ring N
    10   opls_809      1    MEL   H09      1     0.4469     1.0080
    11   opls_810      1    MEL   H0A      1     0.4469     1.0080
    12   opls_811      1    MEL   H0B      1     0.4515     1.0080
    13   opls_812      1    MEL   H0C      1     0.4515     1.0080
    14   opls_813      1    MEL   H0D      1     0.4537     1.0080
    15   opls_814      1    MEL   H0E      1     0.4538     1.0080

;---------------------------------------------------------------------
; BONDS
;
; RING C-N   r0: 0.1324 -> 0.13462 nm  [CIF, mean of 6 ring bonds]
;            kb: 420073.6 unchanged (see Stage 4 note)
;
; EXO  C-Na  r0: 0.1381 -> 0.13471 nm  [CIF, mean of 3 exocyclic]
;            kb: 357313.6 -> 470690    [F22/F11,11 solve]
;
; N-H        r0: 0.1010 -> 0.10150 nm  [CIF, mean of 6 N-H]
;            kb: 363171.2 -> 394150    [F33/F77/F12,12/F13,13]
;
; NOTE: LigParGen makes the exocyclic bond 0.0057 nm LONGER than the
; ring bonds. Experimentally they are equal to within 0.0001 nm
; (1.3471 vs 1.3462 A) because melamine is fully conjugated.
; Hughes (1941) reports a 9-bond mean of 1.346 A.
;---------------------------------------------------------------------
[ bonds ]
;  ai   aj  funct     r0 (nm)      kb (kJ/mol/nm^2)
;--- exocyclic C-Na ---
    2     1     1      0.13471     357313.6   ; C01-N00  was 0.1381 357313.6
    5     4     1      0.13471     357313.6   ; C03-N04  was 0.1381 357313.6
    8     7     1      0.13471     357313.6   ; C06-N07  was 0.1381 357313.6
;--- ring C-N ---
    3     2     1      0.13462     420073.6   ; N02-C01  was 0.1324
    4     3     1      0.13462     420073.6   ; C03-N02  was 0.1324
    6     4     1      0.13462     420073.6   ; N05-C03  was 0.1324
    7     6     1      0.13462     420073.6   ; C06-N05  was 0.1324
    9     2     1      0.13462     420073.6   ; N08-C01  was 0.1324
    9     7     1      0.13462     420073.6   ; N08-C06  was 0.1324
;--- N-H ---
   10     1     1      0.10150     394150    ; N00-H09  was 0.1010 363171.2
   11     1     1      0.10150     394150    ; N00-H0A
   12     5     1      0.10150     394150    ; N04-H0B
   13     5     1      0.10150     394150    ; N04-H0C
   14     8     1      0.10150     394150    ; N07-H0D
   15     8     1      0.10150     394150    ; N07-H0E

;=====================================================================
; STAGE 4 (OPTIONAL / SPECULATIVE) - ring stretch force constant
;
; F1,1 + F6,6 gives only  f + 2*f_meta = 8.113 aJ/A^2
; With F10,10 = 7.663 this brackets f_ring ~ 7.7-8.1 aJ/A^2,
; but it is NOT uniquely determined without the full E' block
; algebra and the B-matrix.
;
; f_ring = 7.8 aJ/A^2 -> 469700 kJ/mol/nm^2  (vs LigParGen 420073.6)
;
; WARNING: your MD already places the ring C=N peak at ~1712 cm^-1,
; roughly +77 above the highest refined experimental band in that
; region (nu12 = 1635). Stiffening the ring will push it HIGHER.
; Test this stage separately and be prepared to revert.
;
; To apply, replace the six ring kb values 420073.6 with 469700.0
;=====================================================================

;---------------------------------------------------------------------
; ANGLES
;
; theta0 updated from COD 2205105 geometry block.
; FORCE CONSTANTS UNCHANGED - Table 4's bend constants are labelled
; aJ/A^2 but bends require aJ/rad^2, and the reference-length scaling
; convention is not stated in the paper. Converting them would be
; guesswork, so they are deliberately left alone.
;
;   ring N-C-N        129.100 -> 125.24  (CIF: 124.68, 125.28, 125.76)
;   ring C-N-C        118.600 -> 114.72  (CIF: 114.53, 114.76, 114.87)
;   N(ring)-C-N(am)   123.300 -> 117.38  (CIF mean of 6)
;   C-N-H             118.000 unchanged  (CIF mean 117.5 - already close)
;   H-N-H             120.000 unchanged  (CIF 119.6/119.0/113.9,
;                                         amino groups inequivalent at
;                                         14 K; planarity is enforced by
;                                         the improper anyway)
;---------------------------------------------------------------------
[ angles ]
;  ai    aj    ak funct   theta0(deg)  ktheta(kJ/mol/rad^2)
;--- N(ring)-C-N(amino)  exocyclic ---
    1     2     3     1    117.380    585.760   ; was 123.300
    1     2     9     1    117.380    585.760   ; was 123.300
    3     4     5     1    117.380    585.760   ; was 123.300
    5     4     6     1    117.380    585.760   ; was 123.300
    6     7     8     1    117.380    585.760   ; was 123.300
    8     7     9     1    117.380    585.760   ; was 123.300
;--- ring C-N-C ---
    2     3     4     1    114.720    585.760   ; was 118.600
    4     6     7     1    114.720    585.760   ; was 118.600
    2     9     7     1    114.720    585.760   ; was 118.600
;--- ring N-C-N ---
    3     2     9     1    125.240    585.760   ; was 129.100
    3     4     6     1    125.240    585.760   ; was 129.100
    6     7     9     1    125.240    585.760   ; was 129.100
;--- C-N-H (unchanged) ---
    2     1    10     1    118.000    292.880
    2     1    11     1    118.000    292.880
    4     5    12     1    118.000    292.880
    4     5    13     1    118.000    292.880
    7     8    14     1    118.000    292.880
    7     8    15     1    118.000    292.880
;--- H-N-H (unchanged) ---
   10     1    11     1    120.000    292.880
   12     5    13     1    120.000    292.880
   14     8    15     1    120.000    292.880

;---------------------------------------------------------------------
; IMPROPER DIHEDRALS - UNCHANGED
;---------------------------------------------------------------------
[ dihedrals ]
;  ai    aj    ak    al funct   phi0(deg)  kphi(kJ/mol)  mult
    13     5     4    12     4    180.000     10.460     2
    11     1     2    10     4    180.000     10.460     2
    15     8     7    14     4    180.000     10.460     2
     8     7     9     6     4    180.000     10.460     2
     9     2     1     3     4    180.000     10.460     2
     6     4     3     5     4    180.000     10.460     2

;---------------------------------------------------------------------
; PROPER DIHEDRALS - UNCHANGED
;---------------------------------------------------------------------
[ dihedrals ]
;  ai    aj    ak    al funct      C0      C1       C2      C3      C4     C5
    4    3    2    1        3   30.334   0.000  -30.334  -0.000  -0.000   0.000
    7    9    2    1        3   30.334   0.000  -30.334  -0.000  -0.000   0.000
    7    6    4    5        3   30.334   0.000  -30.334  -0.000  -0.000   0.000
    7    6    4    3        3   30.334   0.000  -30.334  -0.000  -0.000   0.000
    7    9    2    3        3   30.334   0.000  -30.334  -0.000  -0.000   0.000
   12    5    4    3        3   30.334   0.000  -30.334  -0.000  -0.000   0.000
   11    1    2    9        3   30.334   0.000  -30.334  -0.000  -0.000   0.000
   14    8    7    6        3   30.334   0.000  -30.334  -0.000  -0.000   0.000
   15    8    7    6        3   30.334   0.000  -30.334  -0.000  -0.000   0.000
   11    1    2    3        3   30.334   0.000  -30.334  -0.000  -0.000   0.000
   13    5    4    3        3   30.334   0.000  -30.334  -0.000  -0.000   0.000
   14    8    7    9        3   30.334   0.000  -30.334  -0.000  -0.000   0.000
   12    5    4    6        3   30.334   0.000  -30.334  -0.000  -0.000   0.000
   15    8    7    9        3   30.334   0.000  -30.334  -0.000  -0.000   0.000
   10    1    2    9        3   30.334   0.000  -30.334  -0.000  -0.000   0.000
   10    1    2    3        3   30.334   0.000  -30.334  -0.000  -0.000   0.000
   13    5    4    6        3   30.334   0.000  -30.334  -0.000  -0.000   0.000
    8    7    9    2        3   30.334   0.000  -30.334  -0.000  -0.000   0.000
    8    7    6    4        3   30.334   0.000  -30.334  -0.000  -0.000   0.000
    5    4    3    2        3   30.334   0.000  -30.334  -0.000  -0.000   0.000
    9    7    6    4        3   30.334   0.000  -30.334  -0.000  -0.000   0.000
    9    2    3    4        3   30.334   0.000  -30.334  -0.000  -0.000   0.000
    6    7    9    2        3   30.334   0.000  -30.334  -0.000  -0.000   0.000
    6    4    3    2        3   30.334   0.000  -30.334  -0.000  -0.000   0.000

;---------------------------------------------------------------------
; PAIRS - UNCHANGED
;---------------------------------------------------------------------
[ pairs ]
     1     4    1
     2     5    1
     2     6    1
     1     7    1
     3     7    1
     2     8    1
     5     7    1
     4     8    1
     4     9    1
     3    10    1
     3    11    1
     3    12    1
     3    13    1
     6    12    1
     9    10    1
     6    13    1
     9    11    1
     6    14    1
     6    15    1
     9    14    1
     9    15    1

;=====================================================================
; DERIVATION NOTES
;=====================================================================
;
; READING TABLE 4 (Fernandez-Liencres et al. 2001, p.11)
;   The table is LOWER TRIANGULAR, printed row by row.
;   The DIAGONAL element is the LAST number in each row.
;   Refined values are in parentheses; pre-refinement HF/3-21G values
;   are outside. Use the parenthesised (refined) values.
;   Example - row "F3,3  -0.056  0.100  6.294(6.537)" means
;     F3,1 = -0.056 ; F3,2 = 0.100 ; F3,3 = 6.294 (refined 6.537)
;
; ---------------------------------------------------------------
; 1) N-H STRETCH  (rigorous)
; ---------------------------------------------------------------
; N-H stretching appears in four independent symmetry blocks
; (Table 3, p.6):
;     S3  = (R10+R11+R12+R13+R14+R15)/sqrt(6)      A1'
;     S7  = (R10-R11+R12-R13+R14-R15)/sqrt(6)      A2'
;     S12 = (2R10-R11-R12-R13-R14+2R15)/sqrt(12)   E'
;     S13 = (R11-R12-R13+R14)/2                    E'
;
; Refined diagonals:
;     F3,3   = 6.537
;     F7,7   = 6.518
;     F12,12 = 6.523
;     F13,13 = 6.603
;
; All four agree to within 1.3%. For a normalized symmetric
; combination, F_SS = f_diag + (sum of interaction constants).
; Agreement across all four blocks therefore PROVES the N-H/N-H
; interaction constants are ~0, so F_SS = f(N-H) directly.
;
;     f(N-H) = mean = 6.545 aJ/A^2
;     kb     = 6.545 * 60221.4 = 394150 kJ/mol/nm^2
;
; NORMALIZATION CHECK: Table 3 writes S1, S2, S3 as plain sums
; without explicit 1/sqrt(N) factors. If they were truly
; unnormalized, f(N-H) would be 6.537/6 = 1.09 aJ/A^2, which is
; physically impossible for an N-H bond (~6.5 expected).
; The normalized reading is therefore the correct one.
;
; HARMONIC FREQUENCY CHECK (reduced mass 0.9403 amu):
;     LigParGen  363171 kJ/mol/nm^2 -> 603.0 N/m -> 3299 cm^-1
;     Refined    394150 kJ/mol/nm^2 -> 654.5 N/m -> 3437 cm^-1
;     Experiment (Table 5): 3378, 3381, 3497, 3498 cm^-1
;     Your MD peaks:        3257, 3364, 3379 cm^-1
;   -> the correction moves the N-H region toward experiment.
;
; ---------------------------------------------------------------
; 2) EXOCYCLIC C-Na STRETCH  (2x2 solve)
; ---------------------------------------------------------------
;     S2  = (R7+R8+R9)/sqrt(3)          A1'   -> F2,2   = 6.670
;     S11 = (2R7-R8-R9)/sqrt(6)         E'    -> F11,11 = 8.389
;
; For three equivalent bonds with a single interaction constant f':
;     F2,2   = f + 2f'
;     F11,11 = f -  f'
;
; Solving:
;     f'          = (F2,2 - F11,11)/3 = -0.573 aJ/A^2
;     f(C-Na)     = F11,11 + f'       =  7.816 aJ/A^2
;     kb          = 7.816 * 60221.4   =  470690 kJ/mol/nm^2
;
; The large negative f' reflects through-ring conjugation between
; the three exocyclic bonds, consistent with the resonance picture.
;
; SANITY: f = 7.82 aJ/A^2 corresponds to ~50% double-bond character,
; appropriate for a 1.347 A conjugated C-N. LigParGen's 5.93 aJ/A^2
; corresponds closer to a pure C-N single bond, which is wrong for
; melamine.
;
; ---------------------------------------------------------------
; 3) RING C-N STRETCH  (NOT uniquely determined)
; ---------------------------------------------------------------
;     S1 = (R1+..+R6)/sqrt(6)                A1' -> F1,1  = 11.836
;     S6 = (R1-R2+R3-R4+R5-R6)/sqrt(6)       A2' -> F6,6  =  4.390
;     S10 (E', mixed combination)                -> F10,10=  7.663
;
; With ortho/meta/para interaction constants:
;     F1,1 = f + 2f_o + 2f_m + f_p
;     F6,6 = f - 2f_o + 2f_m - f_p
;
;     Sum:  f + 2f_m       = 8.113
;     Diff: 2f_o + f_p     = 3.723
;
; Two equations, four unknowns. Not solvable without the full E'
; block expansion and the B-matrix. Bracketed estimate 7.7-8.1.
; Left at the LigParGen value by default. See Stage 4 warning.
;
; ---------------------------------------------------------------
; 4) WHAT IS DELIBERATELY NOT TRANSFERRED
; ---------------------------------------------------------------
; (a) ALL off-diagonal force constants. GROMACS bonded terms are
;     diagonal and separable. The refined off-diagonals
;     (F18,11 = 0.923, F14,10 = 0.745, F16,11 = -0.224, ...) are
;     exactly what generates the mixed NH-rock / CN-stretch modes
;     at 1148-1180 cm^-1 (Table 5, nu8/nu15). This is the structural
;     reason your MD has a hole at 1100-1400 cm^-1, and it CANNOT be
;     repaired by editing diagonal terms.
;
; (b) All bend and torsion constants. Table 4's caption gives aJ/A^2
;     throughout, but bends require aJ/rad^2 and the reference-length
;     scaling convention is not stated. Converting them would be
;     guesswork.
;
; (c) The authors state (p.2-3) that only intramolecular constants
;     were defined, "neglecting the intermolecular forces among the
;     melamine and the neighbouring molecules," giving an EFFECTIVE
;     force field. They also refined under an assumed D3h symmetry
;     which the crystal does not possess.
;
; ---------------------------------------------------------------
; 5) SEPARATE RESULT USEFUL FOR LEAPR
; ---------------------------------------------------------------
; The same paper (Section 4.3, p.15-16) reports the Debye-Waller
; anisotropy needed to reproduce the INS intensities:
;
;     in-plane  DW = 0.010     (force constant 59.12 kcal/A^2)
;     out-of-plane DW = 0.040  (force constant 28.96 kcal/A^2)
;     ratio = 4
;
; This is directly usable when constructing S(alpha,beta), and is
; independent of whether you adopt any of the force constants above.
;
;=====================================================================
; REFERENCES
;=====================================================================
; Fernandez-Liencres, M.P.; Navarro, A.; Lopez-Gonzalez, J.J.;
;   Fernandez-Gomez, M.; Tomkinson, J.; Kearley, G.J.
;   "Measurement and ab initio modeling of the inelastic neutron
;   scattering of solid melamine. Evidence of the anisotropy in the
;   external modes spectrum."
;   Chemical Physics 266 (2001) 1-17.
;   doi:10.1016/S0301-0104(01)00326-3
;
; Cousson, A.; Nicolai, B.; Fillaux, F.
;   Acta Crystallographica Section E 61 (2005) o222-o224.
;   doi:10.1107/S160053680403332X   [COD entry 2205105]
;
; Hughes, E.W. J. Am. Chem. Soc. 63 (1941) 1737-1752.
;   doi:10.1021/ja01851a021
;
; Dodda, L.S.; Cabeza de Vaca, I.; Tirado-Rives, J.; Jorgensen, W.L.
;   Nucleic Acids Research 45 (2017) W331-W336.  [LigParGen]
;=====================================================================
