Melamine conventional unit cell (COD 2205105, 14 K neutron structure; LigParGen atom names)
 2160
    1MEL    N00    1   0.253   0.483  -0.047  0.0000  0.0000  0.0000
    1MEL    C01    2   0.160   0.486   0.048  0.0000  0.0000  0.0000
    1MEL    N02    3   0.093   0.603   0.066  0.0000  0.0000  0.0000
    1MEL    C03    4  -0.002   0.600   0.160  0.0000  0.0000  0.0000
    1MEL    N04    5  -0.066   0.718   0.185  0.0000  0.0000  0.0000
    1MEL    N05    6  -0.037   0.494   0.233  0.0000  0.0000  0.0000
    1MEL    C06    7   0.036   0.383   0.208  0.0000  0.0000  0.0000
    1MEL    N07    8   0.007   0.274   0.281  0.0000  0.0000  0.0000
    1MEL    N08    9   0.137   0.374   0.120  0.0000  0.0000  0.0000
    1MEL    H09   10   0.288   0.572  -0.084  0.0000  0.0000  0.0000
    1MEL    H0A   11   0.309   0.399  -0.059  0.0000  0.0000  0.0000
    1MEL    H0B   12  -0.065   0.784   0.107  0.0000  0.0000  0.0000
    1MEL    H0C   13  -0.156   0.710   0.231  0.0000  0.0000  0.0000
    1MEL    H0D   14   0.053   0.187   0.258  0.0000  0.0000  0.0000
    1MEL    H0E   15  -0.079   0.271   0.335  0.0000  0.0000  0.0000
    2MEL    N00   16  -0.253  -0.483   0.047  0.0000  0.0000  0.0000
    2MEL    C01   17  -0.160  -0.486  -0.048  0.0000  0.0000  0.0000
    2MEL    N02   18  -0.093  -0.603  -0.066  0.0000  0.0000  0.0000
    2MEL    C03   19   0.002  -0.600  -0.160  0.0000  0.0000  0.0000
    2MEL    N04   20   0.066  -0.718  -0.185  0.0000  0.0000  0.0000
    2MEL    N05   21   0.037  -0.494  -0.233  0.0000  0.0000  0.0000
    2MEL    C06   22  -0.036  -0.383  -0.208  0.0000  0.0000  0.0000
    2MEL    N07   23  -0.007  -0.274  -0.281  0.0000  0.0000  0.0000
    2MEL    N08   24  -0.137  -0.374  -0.120  0.0000  0.0000  0.0000
    2MEL    H09   25  -0.288  -0.572   0.084  0.0000  0.0000  0.0000
    2MEL    H0A   26  -0.309  -0.399   0.059  0.0000  0.0000  0.0000
    2MEL    H0B   27   0.065  -0.784  -0.107  0.0000  0.0000  0.0000
    2MEL    H0C   28   0.156  -0.710  -0.231  0.0000  0.0000  0.0000
    2MEL    H0D   29  -0.053  -0.187  -0.258  0.0000  0.0000  0.0000
    2MEL    H0E   30   0.079  -0.271  -0.335  0.0000  0.0000  0.0000
    3MEL    N00   31   0.268   0.856   0.047  0.0000  0.0000  0.0000
    3MEL    C01   32   0.362   0.859  -0.048  0.0000  0.0000  0.0000
    3MEL    N02   33   0.428   0.976  -0.066  0.0000  0.0000  0.0000
    3MEL    C03   34   0.524   0.973  -0.160  0.0000  0.0000  0.0000
    3MEL    N04   35   0.587   1.091  -0.185  0.0000  0.0000  0.0000
    3MEL    N05   36   0.559   0.866  -0.233  0.0000  0.0000  0.0000
    3MEL    C06   37   0.485   0.756  -0.208  0.0000  0.0000  0.0000
    3MEL    N07   38   0.514   0.646  -0.281  0.0000  0.0000  0.0000
    3MEL    N08   39   0.384   0.747  -0.120  0.0000  0.0000  0.0000
    3MEL    H09   40   0.234   0.944   0.084  0.0000  0.0000  0.0000
    3MEL    H0A   41   0.213   0.772   0.059  0.0000  0.0000  0.0000
    3MEL    H0B   42   0.587   1.157  -0.107  0.0000  0.0000  0.0000
    3MEL    H0C   43   0.677   1.083  -0.231  0.0000  0.0000  0.0000
    3MEL    H0D   44   0.468   0.560  -0.258  0.0000  0.0000  0.0000
    3MEL    H0E   45   0.601   0.643  -0.335  0.0000  0.0000  0.0000
    4MEL    N00   46   0.775  -0.110  -0.047  0.0000  0.0000  0.0000
    4MEL    C01   47   0.681  -0.114   0.048  0.0000  0.0000  0.0000
    4MEL    N02   48   0.615  -0.230   0.066  0.0000  0.0000  0.0000
    4MEL    C03   49   0.520  -0.228   0.160  0.0000  0.0000  0.0000
    4MEL    N04   50   0.456  -0.345   0.185  0.0000  0.0000  0.0000
    4MEL    N05   51   0.485  -0.121   0.233  0.0000  0.0000  0.0000
    4MEL    C06   52   0.558  -0.010   0.208  0.0000  0.0000  0.0000
    4MEL    N07   53   0.529   0.099   0.281  0.0000  0.0000  0.0000
    4MEL    N08   54   0.659  -0.002   0.120  0.0000  0.0000  0.0000
    4MEL    H09   55   0.809  -0.199  -0.084  0.0000  0.0000  0.0000
    4MEL    H0A   56   0.830  -0.026  -0.059  0.0000  0.0000  0.0000
    4MEL    H0B   57   0.456  -0.411   0.107  0.0000  0.0000  0.0000
    4MEL    H0C   58   0.366  -0.337   0.231  0.0000  0.0000  0.0000
    4MEL    H0D   59   0.575   0.185   0.258  0.0000  0.0000  0.0000
    4MEL    H0E   60   0.442   0.102   0.335  0.0000  0.0000  0.0000
    5MEL    N00   61  -0.033   0.483   0.618  0.0000  0.0000  0.0000
    5MEL    C01   62  -0.126   0.486   0.713  0.0000  0.0000  0.0000
    5MEL    N02   63  -0.193   0.603   0.731  0.0000  0.0000  0.0000
    5MEL    C03   64  -0.288   0.600   0.825  0.0000  0.0000  0.0000
    5MEL    N04   65  -0.352   0.718   0.850  0.0000  0.0000  0.0000
    5MEL    N05   66  -0.323   0.494   0.898  0.0000  0.0000  0.0000
    5MEL    C06   67  -0.250   0.383   0.873  0.0000  0.0000  0.0000
    5MEL    N07   68  -0.279   0.274   0.946  0.0000  0.0000  0.0000
    5MEL    N08   69  -0.149   0.374   0.785  0.0000  0.0000  0.0000
    5MEL    H09   70   0.002   0.572   0.581  0.0000  0.0000  0.0000
    5MEL    H0A   71   0.023   0.399   0.606  0.0000  0.0000  0.0000
    5MEL    H0B   72  -0.351   0.784   0.772  0.0000  0.0000  0.0000
    5MEL    H0C   73  -0.442   0.710   0.896  0.0000  0.0000  0.0000
    5MEL    H0D   74  -0.233   0.187   0.923  0.0000  0.0000  0.0000
    5MEL    H0E   75  -0.365   0.271   1.000  0.0000  0.0000  0.0000
    6MEL    N00   76  -0.539  -0.483   0.712  0.0000  0.0000  0.0000
    6MEL    C01   77  -0.446  -0.486   0.617  0.0000  0.0000  0.0000
    6MEL    N02   78  -0.379  -0.603   0.599  0.0000  0.0000  0.0000
    6MEL    C03   79  -0.284  -0.600   0.505  0.0000  0.0000  0.0000
    6MEL    N04   80  -0.220  -0.718   0.480  0.0000  0.0000  0.0000
    6MEL    N05   81  -0.249  -0.494   0.432  0.0000  0.0000  0.0000
    6MEL    C06   82  -0.322  -0.383   0.457  0.0000  0.0000  0.0000
    6MEL    N07   83  -0.293  -0.274   0.384  0.0000  0.0000  0.0000
    6MEL    N08   84  -0.423  -0.374   0.545  0.0000  0.0000  0.0000
    6MEL    H09   85  -0.574  -0.572   0.749  0.0000  0.0000  0.0000
    6MEL    H0A   86  -0.595  -0.399   0.724  0.0000  0.0000  0.0000
    6MEL    H0B   87  -0.221  -0.784   0.558  0.0000  0.0000  0.0000
    6MEL    H0C   88  -0.130  -0.710   0.434  0.0000  0.0000  0.0000
    6MEL    H0D   89  -0.339  -0.187   0.407  0.0000  0.0000  0.0000
    6MEL    H0E   90  -0.207  -0.271   0.330  0.0000  0.0000  0.0000
    7MEL    N00   91  -0.018   0.856   0.712  0.0000  0.0000  0.0000
    7MEL    C01   92   0.076   0.859   0.617  0.0000  0.0000  0.0000
    7MEL    N02   93   0.142   0.976   0.599  0.0000  0.0000  0.0000
    7MEL    C03   94   0.238   0.973   0.505  0.0000  0.0000  0.0000
    7MEL    N04   95   0.301   1.091   0.480  0.0000  0.0000  0.0000
    7MEL    N05   96   0.273   0.866   0.432  0.0000  0.0000  0.0000
    7MEL    C06   97   0.199   0.756   0.457  0.0000  0.0000  0.0000
    7MEL    N07   98   0.228   0.646   0.384  0.0000  0.0000  0.0000
    7MEL    N08   99   0.098   0.747   0.545  0.0000  0.0000  0.0000
    7MEL    H09  100  -0.052   0.944   0.749  0.0000  0.0000  0.0000
    7MEL    H0A  101  -0.073   0.772   0.724  0.0000  0.0000  0.0000
    7MEL    H0B  102   0.301   1.157   0.558  0.0000  0.0000  0.0000
    7MEL    H0C  103   0.391   1.083   0.434  0.0000  0.0000  0.0000
    7MEL    H0D  104   0.182   0.560   0.407  0.0000  0.0000  0.0000
    7MEL    H0E  105   0.315   0.643   0.330  0.0000  0.0000  0.0000
    8MEL    N00  106   0.489  -0.110   0.618  0.0000  0.0000  0.0000
    8MEL    C01  107   0.395  -0.114   0.713  0.0000  0.0000  0.0000
    8MEL    N02  108   0.329  -0.230   0.731  0.0000  0.0000  0.0000
    8MEL    C03  109   0.234  -0.228   0.825  0.0000  0.0000  0.0000
    8MEL    N04  110   0.170  -0.345   0.850  0.0000  0.0000  0.0000
    8MEL    N05  111   0.199  -0.121   0.898  0.0000  0.0000  0.0000
    8MEL    C06  112   0.272  -0.010   0.873  0.0000  0.0000  0.0000
    8MEL    N07  113   0.243   0.099   0.946  0.0000  0.0000  0.0000
    8MEL    N08  114   0.373  -0.002   0.785  0.0000  0.0000  0.0000
    8MEL    H09  115   0.523  -0.199   0.581  0.0000  0.0000  0.0000
    8MEL    H0A  116   0.544  -0.026   0.606  0.0000  0.0000  0.0000
    8MEL    H0B  117   0.170  -0.411   0.772  0.0000  0.0000  0.0000
    8MEL    H0C  118   0.080  -0.337   0.896  0.0000  0.0000  0.0000
    8MEL    H0D  119   0.289   0.185   0.923  0.0000  0.0000  0.0000
    8MEL    H0E  120   0.156   0.102   1.000  0.0000  0.0000  0.0000
    9MEL    N00  121  -0.320   0.483   1.283  0.0000  0.0000  0.0000
    9MEL    C01  122  -0.413   0.486   1.378  0.0000  0.0000  0.0000
    9MEL    N02  123  -0.480   0.603   1.396  0.0000  0.0000  0.0000
    9MEL    C03  124  -0.575   0.600   1.490  0.0000  0.0000  0.0000
    9MEL    N04  125  -0.639   0.718   1.515  0.0000  0.0000  0.0000
    9MEL    N05  126  -0.610   0.494   1.563  0.0000  0.0000  0.0000
    9MEL    C06  127  -0.537   0.383   1.538  0.0000  0.0000  0.0000
    9MEL    N07  128  -0.566   0.274   1.611  0.0000  0.0000  0.0000
    9MEL    N08  129  -0.436   0.374   1.450  0.0000  0.0000  0.0000
    9MEL    H09  130  -0.285   0.572   1.246  0.0000  0.0000  0.0000
    9MEL    H0A  131  -0.264   0.399   1.271  0.0000  0.0000  0.0000
    9MEL    H0B  132  -0.638   0.784   1.437  0.0000  0.0000  0.0000
    9MEL    H0C  133  -0.729   0.710   1.561  0.0000  0.0000  0.0000
    9MEL    H0D  134  -0.520   0.187   1.588  0.0000  0.0000  0.0000
    9MEL    H0E  135  -0.652   0.271   1.665  0.0000  0.0000  0.0000
   10MEL    N00  136  -0.826  -0.483   1.377  0.0000  0.0000  0.0000
   10MEL    C01  137  -0.733  -0.486   1.282  0.0000  0.0000  0.0000
   10MEL    N02  138  -0.666  -0.603   1.264  0.0000  0.0000  0.0000
   10MEL    C03  139  -0.571  -0.600   1.170  0.0000  0.0000  0.0000
   10MEL    N04  140  -0.507  -0.718   1.145  0.0000  0.0000  0.0000
   10MEL    N05  141  -0.536  -0.494   1.097  0.0000  0.0000  0.0000
   10MEL    C06  142  -0.609  -0.383   1.122  0.0000  0.0000  0.0000
   10MEL    N07  143  -0.580  -0.274   1.049  0.0000  0.0000  0.0000
   10MEL    N08  144  -0.710  -0.374   1.210  0.0000  0.0000  0.0000
   10MEL    H09  145  -0.861  -0.572   1.414  0.0000  0.0000  0.0000
   10MEL    H0A  146  -0.882  -0.399   1.389  0.0000  0.0000  0.0000
   10MEL    H0B  147  -0.508  -0.784   1.223  0.0000  0.0000  0.0000
   10MEL    H0C  148  -0.417  -0.710   1.099  0.0000  0.0000  0.0000
   10MEL    H0D  149  -0.626  -0.187   1.072  0.0000  0.0000  0.0000
   10MEL    H0E  150  -0.494  -0.271   0.995  0.0000  0.0000  0.0000
   11MEL    N00  151  -0.305   0.856   1.377  0.0000  0.0000  0.0000
   11MEL    C01  152  -0.211   0.859   1.282  0.0000  0.0000  0.0000
   11MEL    N02  153  -0.145   0.976   1.264  0.0000  0.0000  0.0000
   11MEL    C03  154  -0.049   0.973   1.170  0.0000  0.0000  0.0000
   11MEL    N04  155   0.014   1.091   1.145  0.0000  0.0000  0.0000
   11MEL    N05  156  -0.014   0.866   1.097  0.0000  0.0000  0.0000
   11MEL    C06  157  -0.088   0.756   1.122  0.0000  0.0000  0.0000
   11MEL    N07  158  -0.059   0.646   1.049  0.0000  0.0000  0.0000
   11MEL    N08  159  -0.189   0.747   1.210  0.0000  0.0000  0.0000
   11MEL    H09  160  -0.339   0.944   1.414  0.0000  0.0000  0.0000
   11MEL    H0A  161  -0.360   0.772   1.389  0.0000  0.0000  0.0000
   11MEL    H0B  162   0.014   1.157   1.223  0.0000  0.0000  0.0000
   11MEL    H0C  163   0.104   1.083   1.099  0.0000  0.0000  0.0000
   11MEL    H0D  164  -0.105   0.560   1.072  0.0000  0.0000  0.0000
   11MEL    H0E  165   0.028   0.643   0.995  0.0000  0.0000  0.0000
   12MEL    N00  166   0.202  -0.110   1.283  0.0000  0.0000  0.0000
   12MEL    C01  167   0.108  -0.114   1.378  0.0000  0.0000  0.0000
   12MEL    N02  168   0.042  -0.230   1.396  0.0000  0.0000  0.0000
   12MEL    C03  169  -0.053  -0.228   1.490  0.0000  0.0000  0.0000
   12MEL    N04  170  -0.117  -0.345   1.515  0.0000  0.0000  0.0000
   12MEL    N05  171  -0.088  -0.121   1.563  0.0000  0.0000  0.0000
   12MEL    C06  172  -0.015  -0.010   1.538  0.0000  0.0000  0.0000
   12MEL    N07  173  -0.044   0.099   1.611  0.0000  0.0000  0.0000
   12MEL    N08  174   0.086  -0.002   1.450  0.0000  0.0000  0.0000
   12MEL    H09  175   0.236  -0.199   1.246  0.0000  0.0000  0.0000
   12MEL    H0A  176   0.257  -0.026   1.271  0.0000  0.0000  0.0000
   12MEL    H0B  177  -0.117  -0.411   1.437  0.0000  0.0000  0.0000
   12MEL    H0C  178  -0.207  -0.337   1.561  0.0000  0.0000  0.0000
   12MEL    H0D  179   0.002   0.185   1.588  0.0000  0.0000  0.0000
   12MEL    H0E  180  -0.131   0.102   1.665  0.0000  0.0000  0.0000
   13MEL    N00  181  -0.606   0.483   1.947  0.0000  0.0000  0.0000
   13MEL    C01  182  -0.699   0.486   2.042  0.0000  0.0000  0.0000
   13MEL    N02  183  -0.766   0.603   2.060  0.0000  0.0000  0.0000
   13MEL    C03  184  -0.861   0.600   2.154  0.0000  0.0000  0.0000
   13MEL    N04  185  -0.925   0.718   2.179  0.0000  0.0000  0.0000
   13MEL    N05  186  -0.896   0.494   2.227  0.0000  0.0000  0.0000
   13MEL    C06  187  -0.823   0.383   2.202  0.0000  0.0000  0.0000
   13MEL    N07  188  -0.852   0.274   2.275  0.0000  0.0000  0.0000
   13MEL    N08  189  -0.722   0.374   2.114  0.0000  0.0000  0.0000
   13MEL    H09  190  -0.571   0.572   1.910  0.0000  0.0000  0.0000
   13MEL    H0A  191  -0.550   0.399   1.935  0.0000  0.0000  0.0000
   13MEL    H0B  192  -0.924   0.784   2.101  0.0000  0.0000  0.0000
   13MEL    H0C  193  -1.015   0.710   2.225  0.0000  0.0000  0.0000
   13MEL    H0D  194  -0.806   0.187   2.252  0.0000  0.0000  0.0000
   13MEL    H0E  195  -0.938   0.271   2.329  0.0000  0.0000  0.0000
   14MEL    N00  196  -1.112  -0.483   2.041  0.0000  0.0000  0.0000
   14MEL    C01  197  -1.019  -0.486   1.946  0.0000  0.0000  0.0000
   14MEL    N02  198  -0.952  -0.603   1.928  0.0000  0.0000  0.0000
   14MEL    C03  199  -0.857  -0.600   1.834  0.0000  0.0000  0.0000
   14MEL    N04  200  -0.793  -0.718   1.809  0.0000  0.0000  0.0000
   14MEL    N05  201  -0.822  -0.494   1.761  0.0000  0.0000  0.0000
   14MEL    C06  202  -0.895  -0.383   1.786  0.0000  0.0000  0.0000
   14MEL    N07  203  -0.866  -0.274   1.713  0.0000  0.0000  0.0000
   14MEL    N08  204  -0.996  -0.374   1.874  0.0000  0.0000  0.0000
   14MEL    H09  205  -1.147  -0.572   2.078  0.0000  0.0000  0.0000
   14MEL    H0A  206  -1.168  -0.399   2.053  0.0000  0.0000  0.0000
   14MEL    H0B  207  -0.794  -0.784   1.887  0.0000  0.0000  0.0000
   14MEL    H0C  208  -0.703  -0.710   1.763  0.0000  0.0000  0.0000
   14MEL    H0D  209  -0.912  -0.187   1.736  0.0000  0.0000  0.0000
   14MEL    H0E  210  -0.780  -0.271   1.659  0.0000  0.0000  0.0000
   15MEL    N00  211  -0.591   0.856   2.041  0.0000  0.0000  0.0000
   15MEL    C01  212  -0.497   0.859   1.946  0.0000  0.0000  0.0000
   15MEL    N02  213  -0.431   0.976   1.928  0.0000  0.0000  0.0000
   15MEL    C03  214  -0.335   0.973   1.834  0.0000  0.0000  0.0000
   15MEL    N04  215  -0.272   1.091   1.809  0.0000  0.0000  0.0000
   15MEL    N05  216  -0.300   0.866   1.761  0.0000  0.0000  0.0000
   15MEL    C06  217  -0.374   0.756   1.786  0.0000  0.0000  0.0000
   15MEL    N07  218  -0.345   0.646   1.713  0.0000  0.0000  0.0000
   15MEL    N08  219  -0.475   0.747   1.874  0.0000  0.0000  0.0000
   15MEL    H09  220  -0.625   0.944   2.078  0.0000  0.0000  0.0000
   15MEL    H0A  221  -0.646   0.772   2.053  0.0000  0.0000  0.0000
   15MEL    H0B  222  -0.272   1.157   1.887  0.0000  0.0000  0.0000
   15MEL    H0C  223  -0.182   1.083   1.763  0.0000  0.0000  0.0000
   15MEL    H0D  224  -0.391   0.560   1.736  0.0000  0.0000  0.0000
   15MEL    H0E  225  -0.258   0.643   1.659  0.0000  0.0000  0.0000
   16MEL    N00  226  -0.084  -0.110   1.947  0.0000  0.0000  0.0000
   16MEL    C01  227  -0.178  -0.114   2.042  0.0000  0.0000  0.0000
   16MEL    N02  228  -0.244  -0.230   2.060  0.0000  0.0000  0.0000
   16MEL    C03  229  -0.339  -0.228   2.154  0.0000  0.0000  0.0000
   16MEL    N04  230  -0.403  -0.345   2.179  0.0000  0.0000  0.0000
   16MEL    N05  231  -0.374  -0.121   2.227  0.0000  0.0000  0.0000
   16MEL    C06  232  -0.301  -0.010   2.202  0.0000  0.0000  0.0000
   16MEL    N07  233  -0.330   0.099   2.275  0.0000  0.0000  0.0000
   16MEL    N08  234  -0.200  -0.002   2.114  0.0000  0.0000  0.0000
   16MEL    H09  235  -0.050  -0.199   1.910  0.0000  0.0000  0.0000
   16MEL    H0A  236  -0.029  -0.026   1.935  0.0000  0.0000  0.0000
   16MEL    H0B  237  -0.403  -0.411   2.101  0.0000  0.0000  0.0000
   16MEL    H0C  238  -0.493  -0.337   2.225  0.0000  0.0000  0.0000
   16MEL    H0D  239  -0.284   0.185   2.252  0.0000  0.0000  0.0000
   16MEL    H0E  240  -0.417   0.102   2.329  0.0000  0.0000  0.0000
   17MEL    N00  241   0.253   1.229  -0.047  0.0000  0.0000  0.0000
   17MEL    C01  242   0.160   1.232   0.048  0.0000  0.0000  0.0000
   17MEL    N02  243   0.093   1.349   0.066  0.0000  0.0000  0.0000
   17MEL    C03  244  -0.002   1.346   0.160  0.0000  0.0000  0.0000
   17MEL    N04  245  -0.066   1.464   0.185  0.0000  0.0000  0.0000
   17MEL    N05  246  -0.037   1.240   0.233  0.0000  0.0000  0.0000
   17MEL    C06  247   0.036   1.129   0.208  0.0000  0.0000  0.0000
   17MEL    N07  248   0.007   1.020   0.281  0.0000  0.0000  0.0000
   17MEL    N08  249   0.137   1.120   0.120  0.0000  0.0000  0.0000
   17MEL    H09  250   0.288   1.318  -0.084  0.0000  0.0000  0.0000
   17MEL    H0A  251   0.309   1.145  -0.059  0.0000  0.0000  0.0000
   17MEL    H0B  252  -0.065   1.530   0.107  0.0000  0.0000  0.0000
   17MEL    H0C  253  -0.156   1.456   0.231  0.0000  0.0000  0.0000
   17MEL    H0D  254   0.053   0.933   0.258  0.0000  0.0000  0.0000
   17MEL    H0E  255  -0.079   1.017   0.335  0.0000  0.0000  0.0000
   18MEL    N00  256  -0.253   0.263   0.047  0.0000  0.0000  0.0000
   18MEL    C01  257  -0.160   0.260  -0.048  0.0000  0.0000  0.0000
   18MEL    N02  258  -0.093   0.143  -0.066  0.0000  0.0000  0.0000
   18MEL    C03  259   0.002   0.146  -0.160  0.0000  0.0000  0.0000
   18MEL    N04  260   0.066   0.028  -0.185  0.0000  0.0000  0.0000
   18MEL    N05  261   0.037   0.252  -0.233  0.0000  0.0000  0.0000
   18MEL    C06  262  -0.036   0.363  -0.208  0.0000  0.0000  0.0000
   18MEL    N07  263  -0.007   0.472  -0.281  0.0000  0.0000  0.0000
   18MEL    N08  264  -0.137   0.372  -0.120  0.0000  0.0000  0.0000
   18MEL    H09  265  -0.288   0.174   0.084  0.0000  0.0000  0.0000
   18MEL    H0A  266  -0.309   0.347   0.059  0.0000  0.0000  0.0000
   18MEL    H0B  267   0.065  -0.038  -0.107  0.0000  0.0000  0.0000
   18MEL    H0C  268   0.156   0.036  -0.231  0.0000  0.0000  0.0000
   18MEL    H0D  269  -0.053   0.559  -0.258  0.0000  0.0000  0.0000
   18MEL    H0E  270   0.079   0.475  -0.335  0.0000  0.0000  0.0000
   19MEL    N00  271   0.268   1.602   0.047  0.0000  0.0000  0.0000
   19MEL    C01  272   0.362   1.605  -0.048  0.0000  0.0000  0.0000
   19MEL    N02  273   0.428   1.722  -0.066  0.0000  0.0000  0.0000
   19MEL    C03  274   0.524   1.719  -0.160  0.0000  0.0000  0.0000
   19MEL    N04  275   0.587   1.837  -0.185  0.0000  0.0000  0.0000
   19MEL    N05  276   0.559   1.612  -0.233  0.0000  0.0000  0.0000
   19MEL    C06  277   0.485   1.502  -0.208  0.0000  0.0000  0.0000
   19MEL    N07  278   0.514   1.392  -0.281  0.0000  0.0000  0.0000
   19MEL    N08  279   0.384   1.493  -0.120  0.0000  0.0000  0.0000
   19MEL    H09  280   0.234   1.690   0.084  0.0000  0.0000  0.0000
   19MEL    H0A  281   0.213   1.518   0.059  0.0000  0.0000  0.0000
   19MEL    H0B  282   0.587   1.903  -0.107  0.0000  0.0000  0.0000
   19MEL    H0C  283   0.677   1.829  -0.231  0.0000  0.0000  0.0000
   19MEL    H0D  284   0.468   1.306  -0.258  0.0000  0.0000  0.0000
   19MEL    H0E  285   0.601   1.389  -0.335  0.0000  0.0000  0.0000
   20MEL    N00  286   0.775   0.636  -0.047  0.0000  0.0000  0.0000
   20MEL    C01  287   0.681   0.632   0.048  0.0000  0.0000  0.0000
   20MEL    N02  288   0.615   0.516   0.066  0.0000  0.0000  0.0000
   20MEL    C03  289   0.520   0.518   0.160  0.0000  0.0000  0.0000
   20MEL    N04  290   0.456   0.401   0.185  0.0000  0.0000  0.0000
   20MEL    N05  291   0.485   0.625   0.233  0.0000  0.0000  0.0000
   20MEL    C06  292   0.558   0.736   0.208  0.0000  0.0000  0.0000
   20MEL    N07  293   0.529   0.845   0.281  0.0000  0.0000  0.0000
   20MEL    N08  294   0.659   0.744   0.120  0.0000  0.0000  0.0000
   20MEL    H09  295   0.809   0.547  -0.084  0.0000  0.0000  0.0000
   20MEL    H0A  296   0.830   0.720  -0.059  0.0000  0.0000  0.0000
   20MEL    H0B  297   0.456   0.335   0.107  0.0000  0.0000  0.0000
   20MEL    H0C  298   0.366   0.409   0.231  0.0000  0.0000  0.0000
   20MEL    H0D  299   0.575   0.931   0.258  0.0000  0.0000  0.0000
   20MEL    H0E  300   0.442   0.848   0.335  0.0000  0.0000  0.0000
   21MEL    N00  301  -0.033   1.229   0.618  0.0000  0.0000  0.0000
   21MEL    C01  302  -0.126   1.232   0.713  0.0000  0.0000  0.0000
   21MEL    N02  303  -0.193   1.349   0.731  0.0000  0.0000  0.0000
   21MEL    C03  304  -0.288   1.346   0.825  0.0000  0.0000  0.0000
   21MEL    N04  305  -0.352   1.464   0.850  0.0000  0.0000  0.0000
   21MEL    N05  306  -0.323   1.240   0.898  0.0000  0.0000  0.0000
   21MEL    C06  307  -0.250   1.129   0.873  0.0000  0.0000  0.0000
   21MEL    N07  308  -0.279   1.020   0.946  0.0000  0.0000  0.0000
   21MEL    N08  309  -0.149   1.120   0.785  0.0000  0.0000  0.0000
   21MEL    H09  310   0.002   1.318   0.581  0.0000  0.0000  0.0000
   21MEL    H0A  311   0.023   1.145   0.606  0.0000  0.0000  0.0000
   21MEL    H0B  312  -0.351   1.530   0.772  0.0000  0.0000  0.0000
   21MEL    H0C  313  -0.442   1.456   0.896  0.0000  0.0000  0.0000
   21MEL    H0D  314  -0.233   0.933   0.923  0.0000  0.0000  0.0000
   21MEL    H0E  315  -0.365   1.017   1.000  0.0000  0.0000  0.0000
   22MEL    N00  316  -0.539   0.263   0.712  0.0000  0.0000  0.0000
   22MEL    C01  317  -0.446   0.260   0.617  0.0000  0.0000  0.0000
   22MEL    N02  318  -0.379   0.143   0.599  0.0000  0.0000  0.0000
   22MEL    C03  319  -0.284   0.146   0.505  0.0000  0.0000  0.0000
   22MEL    N04  320  -0.220   0.028   0.480  0.0000  0.0000  0.0000
   22MEL    N05  321  -0.249   0.252   0.432  0.0000  0.0000  0.0000
   22MEL    C06  322  -0.322   0.363   0.457  0.0000  0.0000  0.0000
   22MEL    N07  323  -0.293   0.472   0.384  0.0000  0.0000  0.0000
   22MEL    N08  324  -0.423   0.372   0.545  0.0000  0.0000  0.0000
   22MEL    H09  325  -0.574   0.174   0.749  0.0000  0.0000  0.0000
   22MEL    H0A  326  -0.595   0.347   0.724  0.0000  0.0000  0.0000
   22MEL    H0B  327  -0.221  -0.038   0.558  0.0000  0.0000  0.0000
   22MEL    H0C  328  -0.130   0.036   0.434  0.0000  0.0000  0.0000
   22MEL    H0D  329  -0.339   0.559   0.407  0.0000  0.0000  0.0000
   22MEL    H0E  330  -0.207   0.475   0.330  0.0000  0.0000  0.0000
   23MEL    N00  331  -0.018   1.602   0.712  0.0000  0.0000  0.0000
   23MEL    C01  332   0.076   1.605   0.617  0.0000  0.0000  0.0000
   23MEL    N02  333   0.142   1.722   0.599  0.0000  0.0000  0.0000
   23MEL    C03  334   0.238   1.719   0.505  0.0000  0.0000  0.0000
   23MEL    N04  335   0.301   1.837   0.480  0.0000  0.0000  0.0000
   23MEL    N05  336   0.273   1.612   0.432  0.0000  0.0000  0.0000
   23MEL    C06  337   0.199   1.502   0.457  0.0000  0.0000  0.0000
   23MEL    N07  338   0.228   1.392   0.384  0.0000  0.0000  0.0000
   23MEL    N08  339   0.098   1.493   0.545  0.0000  0.0000  0.0000
   23MEL    H09  340  -0.052   1.690   0.749  0.0000  0.0000  0.0000
   23MEL    H0A  341  -0.073   1.518   0.724  0.0000  0.0000  0.0000
   23MEL    H0B  342   0.301   1.903   0.558  0.0000  0.0000  0.0000
   23MEL    H0C  343   0.391   1.829   0.434  0.0000  0.0000  0.0000
   23MEL    H0D  344   0.182   1.306   0.407  0.0000  0.0000  0.0000
   23MEL    H0E  345   0.315   1.389   0.330  0.0000  0.0000  0.0000
   24MEL    N00  346   0.489   0.636   0.618  0.0000  0.0000  0.0000
   24MEL    C01  347   0.395   0.632   0.713  0.0000  0.0000  0.0000
   24MEL    N02  348   0.329   0.516   0.731  0.0000  0.0000  0.0000
   24MEL    C03  349   0.234   0.518   0.825  0.0000  0.0000  0.0000
   24MEL    N04  350   0.170   0.401   0.850  0.0000  0.0000  0.0000
   24MEL    N05  351   0.199   0.625   0.898  0.0000  0.0000  0.0000
   24MEL    C06  352   0.272   0.736   0.873  0.0000  0.0000  0.0000
   24MEL    N07  353   0.243   0.845   0.946  0.0000  0.0000  0.0000
   24MEL    N08  354   0.373   0.744   0.785  0.0000  0.0000  0.0000
   24MEL    H09  355   0.523   0.547   0.581  0.0000  0.0000  0.0000
   24MEL    H0A  356   0.544   0.720   0.606  0.0000  0.0000  0.0000
   24MEL    H0B  357   0.170   0.335   0.772  0.0000  0.0000  0.0000
   24MEL    H0C  358   0.080   0.409   0.896  0.0000  0.0000  0.0000
   24MEL    H0D  359   0.289   0.931   0.923  0.0000  0.0000  0.0000
   24MEL    H0E  360   0.156   0.848   1.000  0.0000  0.0000  0.0000
   25MEL    N00  361  -0.320   1.229   1.283  0.0000  0.0000  0.0000
   25MEL    C01  362  -0.413   1.232   1.378  0.0000  0.0000  0.0000
   25MEL    N02  363  -0.480   1.349   1.396  0.0000  0.0000  0.0000
   25MEL    C03  364  -0.575   1.346   1.490  0.0000  0.0000  0.0000
   25MEL    N04  365  -0.639   1.464   1.515  0.0000  0.0000  0.0000
   25MEL    N05  366  -0.610   1.240   1.563  0.0000  0.0000  0.0000
   25MEL    C06  367  -0.537   1.129   1.538  0.0000  0.0000  0.0000
   25MEL    N07  368  -0.566   1.020   1.611  0.0000  0.0000  0.0000
   25MEL    N08  369  -0.436   1.120   1.450  0.0000  0.0000  0.0000
   25MEL    H09  370  -0.285   1.318   1.246  0.0000  0.0000  0.0000
   25MEL    H0A  371  -0.264   1.145   1.271  0.0000  0.0000  0.0000
   25MEL    H0B  372  -0.638   1.530   1.437  0.0000  0.0000  0.0000
   25MEL    H0C  373  -0.729   1.456   1.561  0.0000  0.0000  0.0000
   25MEL    H0D  374  -0.520   0.933   1.588  0.0000  0.0000  0.0000
   25MEL    H0E  375  -0.652   1.017   1.665  0.0000  0.0000  0.0000
   26MEL    N00  376  -0.826   0.263   1.377  0.0000  0.0000  0.0000
   26MEL    C01  377  -0.733   0.260   1.282  0.0000  0.0000  0.0000
   26MEL    N02  378  -0.666   0.143   1.264  0.0000  0.0000  0.0000
   26MEL    C03  379  -0.571   0.146   1.170  0.0000  0.0000  0.0000
   26MEL    N04  380  -0.507   0.028   1.145  0.0000  0.0000  0.0000
   26MEL    N05  381  -0.536   0.252   1.097  0.0000  0.0000  0.0000
   26MEL    C06  382  -0.609   0.363   1.122  0.0000  0.0000  0.0000
   26MEL    N07  383  -0.580   0.472   1.049  0.0000  0.0000  0.0000
   26MEL    N08  384  -0.710   0.372   1.210  0.0000  0.0000  0.0000
   26MEL    H09  385  -0.861   0.174   1.414  0.0000  0.0000  0.0000
   26MEL    H0A  386  -0.882   0.347   1.389  0.0000  0.0000  0.0000
   26MEL    H0B  387  -0.508  -0.038   1.223  0.0000  0.0000  0.0000
   26MEL    H0C  388  -0.417   0.036   1.099  0.0000  0.0000  0.0000
   26MEL    H0D  389  -0.626   0.559   1.072  0.0000  0.0000  0.0000
   26MEL    H0E  390  -0.494   0.475   0.995  0.0000  0.0000  0.0000
   27MEL    N00  391  -0.305   1.602   1.377  0.0000  0.0000  0.0000
   27MEL    C01  392  -0.211   1.605   1.282  0.0000  0.0000  0.0000
   27MEL    N02  393  -0.145   1.722   1.264  0.0000  0.0000  0.0000
   27MEL    C03  394  -0.049   1.719   1.170  0.0000  0.0000  0.0000
   27MEL    N04  395   0.014   1.837   1.145  0.0000  0.0000  0.0000
   27MEL    N05  396  -0.014   1.612   1.097  0.0000  0.0000  0.0000
   27MEL    C06  397  -0.088   1.502   1.122  0.0000  0.0000  0.0000
   27MEL    N07  398  -0.059   1.392   1.049  0.0000  0.0000  0.0000
   27MEL    N08  399  -0.189   1.493   1.210  0.0000  0.0000  0.0000
   27MEL    H09  400  -0.339   1.690   1.414  0.0000  0.0000  0.0000
   27MEL    H0A  401  -0.360   1.518   1.389  0.0000  0.0000  0.0000
   27MEL    H0B  402   0.014   1.903   1.223  0.0000  0.0000  0.0000
   27MEL    H0C  403   0.104   1.829   1.099  0.0000  0.0000  0.0000
   27MEL    H0D  404  -0.105   1.306   1.072  0.0000  0.0000  0.0000
   27MEL    H0E  405   0.028   1.389   0.995  0.0000  0.0000  0.0000
   28MEL    N00  406   0.202   0.636   1.283  0.0000  0.0000  0.0000
   28MEL    C01  407   0.108   0.632   1.378  0.0000  0.0000  0.0000
   28MEL    N02  408   0.042   0.516   1.396  0.0000  0.0000  0.0000
   28MEL    C03  409  -0.053   0.518   1.490  0.0000  0.0000  0.0000
   28MEL    N04  410  -0.117   0.401   1.515  0.0000  0.0000  0.0000
   28MEL    N05  411  -0.088   0.625   1.563  0.0000  0.0000  0.0000
   28MEL    C06  412  -0.015   0.736   1.538  0.0000  0.0000  0.0000
   28MEL    N07  413  -0.044   0.845   1.611  0.0000  0.0000  0.0000
   28MEL    N08  414   0.086   0.744   1.450  0.0000  0.0000  0.0000
   28MEL    H09  415   0.236   0.547   1.246  0.0000  0.0000  0.0000
   28MEL    H0A  416   0.257   0.720   1.271  0.0000  0.0000  0.0000
   28MEL    H0B  417  -0.117   0.335   1.437  0.0000  0.0000  0.0000
   28MEL    H0C  418  -0.207   0.409   1.561  0.0000  0.0000  0.0000
   28MEL    H0D  419   0.002   0.931   1.588  0.0000  0.0000  0.0000
   28MEL    H0E  420  -0.131   0.848   1.665  0.0000  0.0000  0.0000
   29MEL    N00  421  -0.606   1.229   1.947  0.0000  0.0000  0.0000
   29MEL    C01  422  -0.699   1.232   2.042  0.0000  0.0000  0.0000
   29MEL    N02  423  -0.766   1.349   2.060  0.0000  0.0000  0.0000
   29MEL    C03  424  -0.861   1.346   2.154  0.0000  0.0000  0.0000
   29MEL    N04  425  -0.925   1.464   2.179  0.0000  0.0000  0.0000
   29MEL    N05  426  -0.896   1.240   2.227  0.0000  0.0000  0.0000
   29MEL    C06  427  -0.823   1.129   2.202  0.0000  0.0000  0.0000
   29MEL    N07  428  -0.852   1.020   2.275  0.0000  0.0000  0.0000
   29MEL    N08  429  -0.722   1.120   2.114  0.0000  0.0000  0.0000
   29MEL    H09  430  -0.571   1.318   1.910  0.0000  0.0000  0.0000
   29MEL    H0A  431  -0.550   1.145   1.935  0.0000  0.0000  0.0000
   29MEL    H0B  432  -0.924   1.530   2.101  0.0000  0.0000  0.0000
   29MEL    H0C  433  -1.015   1.456   2.225  0.0000  0.0000  0.0000
   29MEL    H0D  434  -0.806   0.933   2.252  0.0000  0.0000  0.0000
   29MEL    H0E  435  -0.938   1.017   2.329  0.0000  0.0000  0.0000
   30MEL    N00  436  -1.112   0.263   2.041  0.0000  0.0000  0.0000
   30MEL    C01  437  -1.019   0.260   1.946  0.0000  0.0000  0.0000
   30MEL    N02  438  -0.952   0.143   1.928  0.0000  0.0000  0.0000
   30MEL    C03  439  -0.857   0.146   1.834  0.0000  0.0000  0.0000
   30MEL    N04  440  -0.793   0.028   1.809  0.0000  0.0000  0.0000
   30MEL    N05  441  -0.822   0.252   1.761  0.0000  0.0000  0.0000
   30MEL    C06  442  -0.895   0.363   1.786  0.0000  0.0000  0.0000
   30MEL    N07  443  -0.866   0.472   1.713  0.0000  0.0000  0.0000
   30MEL    N08  444  -0.996   0.372   1.874  0.0000  0.0000  0.0000
   30MEL    H09  445  -1.147   0.174   2.078  0.0000  0.0000  0.0000
   30MEL    H0A  446  -1.168   0.347   2.053  0.0000  0.0000  0.0000
   30MEL    H0B  447  -0.794  -0.038   1.887  0.0000  0.0000  0.0000
   30MEL    H0C  448  -0.703   0.036   1.763  0.0000  0.0000  0.0000
   30MEL    H0D  449  -0.912   0.559   1.736  0.0000  0.0000  0.0000
   30MEL    H0E  450  -0.780   0.475   1.659  0.0000  0.0000  0.0000
   31MEL    N00  451  -0.591   1.602   2.041  0.0000  0.0000  0.0000
   31MEL    C01  452  -0.497   1.605   1.946  0.0000  0.0000  0.0000
   31MEL    N02  453  -0.431   1.722   1.928  0.0000  0.0000  0.0000
   31MEL    C03  454  -0.335   1.719   1.834  0.0000  0.0000  0.0000
   31MEL    N04  455  -0.272   1.837   1.809  0.0000  0.0000  0.0000
   31MEL    N05  456  -0.300   1.612   1.761  0.0000  0.0000  0.0000
   31MEL    C06  457  -0.374   1.502   1.786  0.0000  0.0000  0.0000
   31MEL    N07  458  -0.345   1.392   1.713  0.0000  0.0000  0.0000
   31MEL    N08  459  -0.475   1.493   1.874  0.0000  0.0000  0.0000
   31MEL    H09  460  -0.625   1.690   2.078  0.0000  0.0000  0.0000
   31MEL    H0A  461  -0.646   1.518   2.053  0.0000  0.0000  0.0000
   31MEL    H0B  462  -0.272   1.903   1.887  0.0000  0.0000  0.0000
   31MEL    H0C  463  -0.182   1.829   1.763  0.0000  0.0000  0.0000
   31MEL    H0D  464  -0.391   1.306   1.736  0.0000  0.0000  0.0000
   31MEL    H0E  465  -0.258   1.389   1.659  0.0000  0.0000  0.0000
   32MEL    N00  466  -0.084   0.636   1.947  0.0000  0.0000  0.0000
   32MEL    C01  467  -0.178   0.632   2.042  0.0000  0.0000  0.0000
   32MEL    N02  468  -0.244   0.516   2.060  0.0000  0.0000  0.0000
   32MEL    C03  469  -0.339   0.518   2.154  0.0000  0.0000  0.0000
   32MEL    N04  470  -0.403   0.401   2.179  0.0000  0.0000  0.0000
   32MEL    N05  471  -0.374   0.625   2.227  0.0000  0.0000  0.0000
   32MEL    C06  472  -0.301   0.736   2.202  0.0000  0.0000  0.0000
   32MEL    N07  473  -0.330   0.845   2.275  0.0000  0.0000  0.0000
   32MEL    N08  474  -0.200   0.744   2.114  0.0000  0.0000  0.0000
   32MEL    H09  475  -0.050   0.547   1.910  0.0000  0.0000  0.0000
   32MEL    H0A  476  -0.029   0.720   1.935  0.0000  0.0000  0.0000
   32MEL    H0B  477  -0.403   0.335   2.101  0.0000  0.0000  0.0000
   32MEL    H0C  478  -0.493   0.409   2.225  0.0000  0.0000  0.0000
   32MEL    H0D  479  -0.284   0.931   2.252  0.0000  0.0000  0.0000
   32MEL    H0E  480  -0.417   0.848   2.329  0.0000  0.0000  0.0000
   33MEL    N00  481   0.253   1.975  -0.047  0.0000  0.0000  0.0000
   33MEL    C01  482   0.160   1.978   0.048  0.0000  0.0000  0.0000
   33MEL    N02  483   0.093   2.095   0.066  0.0000  0.0000  0.0000
   33MEL    C03  484  -0.002   2.092   0.160  0.0000  0.0000  0.0000
   33MEL    N04  485  -0.066   2.210   0.185  0.0000  0.0000  0.0000
   33MEL    N05  486  -0.037   1.986   0.233  0.0000  0.0000  0.0000
   33MEL    C06  487   0.036   1.875   0.208  0.0000  0.0000  0.0000
   33MEL    N07  488   0.007   1.766   0.281  0.0000  0.0000  0.0000
   33MEL    N08  489   0.137   1.866   0.120  0.0000  0.0000  0.0000
   33MEL    H09  490   0.288   2.064  -0.084  0.0000  0.0000  0.0000
   33MEL    H0A  491   0.309   1.891  -0.059  0.0000  0.0000  0.0000
   33MEL    H0B  492  -0.065   2.276   0.107  0.0000  0.0000  0.0000
   33MEL    H0C  493  -0.156   2.202   0.231  0.0000  0.0000  0.0000
   33MEL    H0D  494   0.053   1.679   0.258  0.0000  0.0000  0.0000
   33MEL    H0E  495  -0.079   1.763   0.335  0.0000  0.0000  0.0000
   34MEL    N00  496  -0.253   1.009   0.047  0.0000  0.0000  0.0000
   34MEL    C01  497  -0.160   1.006  -0.048  0.0000  0.0000  0.0000
   34MEL    N02  498  -0.093   0.889  -0.066  0.0000  0.0000  0.0000
   34MEL    C03  499   0.002   0.892  -0.160  0.0000  0.0000  0.0000
   34MEL    N04  500   0.066   0.774  -0.185  0.0000  0.0000  0.0000
   34MEL    N05  501   0.037   0.998  -0.233  0.0000  0.0000  0.0000
   34MEL    C06  502  -0.036   1.109  -0.208  0.0000  0.0000  0.0000
   34MEL    N07  503  -0.007   1.218  -0.281  0.0000  0.0000  0.0000
   34MEL    N08  504  -0.137   1.118  -0.120  0.0000  0.0000  0.0000
   34MEL    H09  505  -0.288   0.920   0.084  0.0000  0.0000  0.0000
   34MEL    H0A  506  -0.309   1.093   0.059  0.0000  0.0000  0.0000
   34MEL    H0B  507   0.065   0.708  -0.107  0.0000  0.0000  0.0000
   34MEL    H0C  508   0.156   0.782  -0.231  0.0000  0.0000  0.0000
   34MEL    H0D  509  -0.053   1.305  -0.258  0.0000  0.0000  0.0000
   34MEL    H0E  510   0.079   1.221  -0.335  0.0000  0.0000  0.0000
   35MEL    N00  511   0.268   2.348   0.047  0.0000  0.0000  0.0000
   35MEL    C01  512   0.362   2.351  -0.048  0.0000  0.0000  0.0000
   35MEL    N02  513   0.428   2.468  -0.066  0.0000  0.0000  0.0000
   35MEL    C03  514   0.524   2.465  -0.160  0.0000  0.0000  0.0000
   35MEL    N04  515   0.587   2.583  -0.185  0.0000  0.0000  0.0000
   35MEL    N05  516   0.559   2.358  -0.233  0.0000  0.0000  0.0000
   35MEL    C06  517   0.485   2.248  -0.208  0.0000  0.0000  0.0000
   35MEL    N07  518   0.514   2.138  -0.281  0.0000  0.0000  0.0000
   35MEL    N08  519   0.384   2.239  -0.120  0.0000  0.0000  0.0000
   35MEL    H09  520   0.234   2.436   0.084  0.0000  0.0000  0.0000
   35MEL    H0A  521   0.213   2.264   0.059  0.0000  0.0000  0.0000
   35MEL    H0B  522   0.587   2.649  -0.107  0.0000  0.0000  0.0000
   35MEL    H0C  523   0.677   2.575  -0.231  0.0000  0.0000  0.0000
   35MEL    H0D  524   0.468   2.052  -0.258  0.0000  0.0000  0.0000
   35MEL    H0E  525   0.601   2.135  -0.335  0.0000  0.0000  0.0000
   36MEL    N00  526   0.775   1.382  -0.047  0.0000  0.0000  0.0000
   36MEL    C01  527   0.681   1.378   0.048  0.0000  0.0000  0.0000
   36MEL    N02  528   0.615   1.262   0.066  0.0000  0.0000  0.0000
   36MEL    C03  529   0.520   1.264   0.160  0.0000  0.0000  0.0000
   36MEL    N04  530   0.456   1.147   0.185  0.0000  0.0000  0.0000
   36MEL    N05  531   0.485   1.371   0.233  0.0000  0.0000  0.0000
   36MEL    C06  532   0.558   1.482   0.208  0.0000  0.0000  0.0000
   36MEL    N07  533   0.529   1.591   0.281  0.0000  0.0000  0.0000
   36MEL    N08  534   0.659   1.490   0.120  0.0000  0.0000  0.0000
   36MEL    H09  535   0.809   1.293  -0.084  0.0000  0.0000  0.0000
   36MEL    H0A  536   0.830   1.466  -0.059  0.0000  0.0000  0.0000
   36MEL    H0B  537   0.456   1.081   0.107  0.0000  0.0000  0.0000
   36MEL    H0C  538   0.366   1.155   0.231  0.0000  0.0000  0.0000
   36MEL    H0D  539   0.575   1.677   0.258  0.0000  0.0000  0.0000
   36MEL    H0E  540   0.442   1.594   0.335  0.0000  0.0000  0.0000
   37MEL    N00  541  -0.033   1.975   0.618  0.0000  0.0000  0.0000
   37MEL    C01  542  -0.126   1.978   0.713  0.0000  0.0000  0.0000
   37MEL    N02  543  -0.193   2.095   0.731  0.0000  0.0000  0.0000
   37MEL    C03  544  -0.288   2.092   0.825  0.0000  0.0000  0.0000
   37MEL    N04  545  -0.352   2.210   0.850  0.0000  0.0000  0.0000
   37MEL    N05  546  -0.323   1.986   0.898  0.0000  0.0000  0.0000
   37MEL    C06  547  -0.250   1.875   0.873  0.0000  0.0000  0.0000
   37MEL    N07  548  -0.279   1.766   0.946  0.0000  0.0000  0.0000
   37MEL    N08  549  -0.149   1.866   0.785  0.0000  0.0000  0.0000
   37MEL    H09  550   0.002   2.064   0.581  0.0000  0.0000  0.0000
   37MEL    H0A  551   0.023   1.891   0.606  0.0000  0.0000  0.0000
   37MEL    H0B  552  -0.351   2.276   0.772  0.0000  0.0000  0.0000
   37MEL    H0C  553  -0.442   2.202   0.896  0.0000  0.0000  0.0000
   37MEL    H0D  554  -0.233   1.679   0.923  0.0000  0.0000  0.0000
   37MEL    H0E  555  -0.365   1.763   1.000  0.0000  0.0000  0.0000
   38MEL    N00  556  -0.539   1.009   0.712  0.0000  0.0000  0.0000
   38MEL    C01  557  -0.446   1.006   0.617  0.0000  0.0000  0.0000
   38MEL    N02  558  -0.379   0.889   0.599  0.0000  0.0000  0.0000
   38MEL    C03  559  -0.284   0.892   0.505  0.0000  0.0000  0.0000
   38MEL    N04  560  -0.220   0.774   0.480  0.0000  0.0000  0.0000
   38MEL    N05  561  -0.249   0.998   0.432  0.0000  0.0000  0.0000
   38MEL    C06  562  -0.322   1.109   0.457  0.0000  0.0000  0.0000
   38MEL    N07  563  -0.293   1.218   0.384  0.0000  0.0000  0.0000
   38MEL    N08  564  -0.423   1.118   0.545  0.0000  0.0000  0.0000
   38MEL    H09  565  -0.574   0.920   0.749  0.0000  0.0000  0.0000
   38MEL    H0A  566  -0.595   1.093   0.724  0.0000  0.0000  0.0000
   38MEL    H0B  567  -0.221   0.708   0.558  0.0000  0.0000  0.0000
   38MEL    H0C  568  -0.130   0.782   0.434  0.0000  0.0000  0.0000
   38MEL    H0D  569  -0.339   1.305   0.407  0.0000  0.0000  0.0000
   38MEL    H0E  570  -0.207   1.221   0.330  0.0000  0.0000  0.0000
   39MEL    N00  571  -0.018   2.348   0.712  0.0000  0.0000  0.0000
   39MEL    C01  572   0.076   2.351   0.617  0.0000  0.0000  0.0000
   39MEL    N02  573   0.142   2.468   0.599  0.0000  0.0000  0.0000
   39MEL    C03  574   0.238   2.465   0.505  0.0000  0.0000  0.0000
   39MEL    N04  575   0.301   2.583   0.480  0.0000  0.0000  0.0000
   39MEL    N05  576   0.273   2.358   0.432  0.0000  0.0000  0.0000
   39MEL    C06  577   0.199   2.248   0.457  0.0000  0.0000  0.0000
   39MEL    N07  578   0.228   2.138   0.384  0.0000  0.0000  0.0000
   39MEL    N08  579   0.098   2.239   0.545  0.0000  0.0000  0.0000
   39MEL    H09  580  -0.052   2.436   0.749  0.0000  0.0000  0.0000
   39MEL    H0A  581  -0.073   2.264   0.724  0.0000  0.0000  0.0000
   39MEL    H0B  582   0.301   2.649   0.558  0.0000  0.0000  0.0000
   39MEL    H0C  583   0.391   2.575   0.434  0.0000  0.0000  0.0000
   39MEL    H0D  584   0.182   2.052   0.407  0.0000  0.0000  0.0000
   39MEL    H0E  585   0.315   2.135   0.330  0.0000  0.0000  0.0000
   40MEL    N00  586   0.489   1.382   0.618  0.0000  0.0000  0.0000
   40MEL    C01  587   0.395   1.378   0.713  0.0000  0.0000  0.0000
   40MEL    N02  588   0.329   1.262   0.731  0.0000  0.0000  0.0000
   40MEL    C03  589   0.234   1.264   0.825  0.0000  0.0000  0.0000
   40MEL    N04  590   0.170   1.147   0.850  0.0000  0.0000  0.0000
   40MEL    N05  591   0.199   1.371   0.898  0.0000  0.0000  0.0000
   40MEL    C06  592   0.272   1.482   0.873  0.0000  0.0000  0.0000
   40MEL    N07  593   0.243   1.591   0.946  0.0000  0.0000  0.0000
   40MEL    N08  594   0.373   1.490   0.785  0.0000  0.0000  0.0000
   40MEL    H09  595   0.523   1.293   0.581  0.0000  0.0000  0.0000
   40MEL    H0A  596   0.544   1.466   0.606  0.0000  0.0000  0.0000
   40MEL    H0B  597   0.170   1.081   0.772  0.0000  0.0000  0.0000
   40MEL    H0C  598   0.080   1.155   0.896  0.0000  0.0000  0.0000
   40MEL    H0D  599   0.289   1.677   0.923  0.0000  0.0000  0.0000
   40MEL    H0E  600   0.156   1.594   1.000  0.0000  0.0000  0.0000
   41MEL    N00  601  -0.320   1.975   1.283  0.0000  0.0000  0.0000
   41MEL    C01  602  -0.413   1.978   1.378  0.0000  0.0000  0.0000
   41MEL    N02  603  -0.480   2.095   1.396  0.0000  0.0000  0.0000
   41MEL    C03  604  -0.575   2.092   1.490  0.0000  0.0000  0.0000
   41MEL    N04  605  -0.639   2.210   1.515  0.0000  0.0000  0.0000
   41MEL    N05  606  -0.610   1.986   1.563  0.0000  0.0000  0.0000
   41MEL    C06  607  -0.537   1.875   1.538  0.0000  0.0000  0.0000
   41MEL    N07  608  -0.566   1.766   1.611  0.0000  0.0000  0.0000
   41MEL    N08  609  -0.436   1.866   1.450  0.0000  0.0000  0.0000
   41MEL    H09  610  -0.285   2.064   1.246  0.0000  0.0000  0.0000
   41MEL    H0A  611  -0.264   1.891   1.271  0.0000  0.0000  0.0000
   41MEL    H0B  612  -0.638   2.276   1.437  0.0000  0.0000  0.0000
   41MEL    H0C  613  -0.729   2.202   1.561  0.0000  0.0000  0.0000
   41MEL    H0D  614  -0.520   1.679   1.588  0.0000  0.0000  0.0000
   41MEL    H0E  615  -0.652   1.763   1.665  0.0000  0.0000  0.0000
   42MEL    N00  616  -0.826   1.009   1.377  0.0000  0.0000  0.0000
   42MEL    C01  617  -0.733   1.006   1.282  0.0000  0.0000  0.0000
   42MEL    N02  618  -0.666   0.889   1.264  0.0000  0.0000  0.0000
   42MEL    C03  619  -0.571   0.892   1.170  0.0000  0.0000  0.0000
   42MEL    N04  620  -0.507   0.774   1.145  0.0000  0.0000  0.0000
   42MEL    N05  621  -0.536   0.998   1.097  0.0000  0.0000  0.0000
   42MEL    C06  622  -0.609   1.109   1.122  0.0000  0.0000  0.0000
   42MEL    N07  623  -0.580   1.218   1.049  0.0000  0.0000  0.0000
   42MEL    N08  624  -0.710   1.118   1.210  0.0000  0.0000  0.0000
   42MEL    H09  625  -0.861   0.920   1.414  0.0000  0.0000  0.0000
   42MEL    H0A  626  -0.882   1.093   1.389  0.0000  0.0000  0.0000
   42MEL    H0B  627  -0.508   0.708   1.223  0.0000  0.0000  0.0000
   42MEL    H0C  628  -0.417   0.782   1.099  0.0000  0.0000  0.0000
   42MEL    H0D  629  -0.626   1.305   1.072  0.0000  0.0000  0.0000
   42MEL    H0E  630  -0.494   1.221   0.995  0.0000  0.0000  0.0000
   43MEL    N00  631  -0.305   2.348   1.377  0.0000  0.0000  0.0000
   43MEL    C01  632  -0.211   2.351   1.282  0.0000  0.0000  0.0000
   43MEL    N02  633  -0.145   2.468   1.264  0.0000  0.0000  0.0000
   43MEL    C03  634  -0.049   2.465   1.170  0.0000  0.0000  0.0000
   43MEL    N04  635   0.014   2.583   1.145  0.0000  0.0000  0.0000
   43MEL    N05  636  -0.014   2.358   1.097  0.0000  0.0000  0.0000
   43MEL    C06  637  -0.088   2.248   1.122  0.0000  0.0000  0.0000
   43MEL    N07  638  -0.059   2.138   1.049  0.0000  0.0000  0.0000
   43MEL    N08  639  -0.189   2.239   1.210  0.0000  0.0000  0.0000
   43MEL    H09  640  -0.339   2.436   1.414  0.0000  0.0000  0.0000
   43MEL    H0A  641  -0.360   2.264   1.389  0.0000  0.0000  0.0000
   43MEL    H0B  642   0.014   2.649   1.223  0.0000  0.0000  0.0000
   43MEL    H0C  643   0.104   2.575   1.099  0.0000  0.0000  0.0000
   43MEL    H0D  644  -0.105   2.052   1.072  0.0000  0.0000  0.0000
   43MEL    H0E  645   0.028   2.135   0.995  0.0000  0.0000  0.0000
   44MEL    N00  646   0.202   1.382   1.283  0.0000  0.0000  0.0000
   44MEL    C01  647   0.108   1.378   1.378  0.0000  0.0000  0.0000
   44MEL    N02  648   0.042   1.262   1.396  0.0000  0.0000  0.0000
   44MEL    C03  649  -0.053   1.264   1.490  0.0000  0.0000  0.0000
   44MEL    N04  650  -0.117   1.147   1.515  0.0000  0.0000  0.0000
   44MEL    N05  651  -0.088   1.371   1.563  0.0000  0.0000  0.0000
   44MEL    C06  652  -0.015   1.482   1.538  0.0000  0.0000  0.0000
   44MEL    N07  653  -0.044   1.591   1.611  0.0000  0.0000  0.0000
   44MEL    N08  654   0.086   1.490   1.450  0.0000  0.0000  0.0000
   44MEL    H09  655   0.236   1.293   1.246  0.0000  0.0000  0.0000
   44MEL    H0A  656   0.257   1.466   1.271  0.0000  0.0000  0.0000
   44MEL    H0B  657  -0.117   1.081   1.437  0.0000  0.0000  0.0000
   44MEL    H0C  658  -0.207   1.155   1.561  0.0000  0.0000  0.0000
   44MEL    H0D  659   0.002   1.677   1.588  0.0000  0.0000  0.0000
   44MEL    H0E  660  -0.131   1.594   1.665  0.0000  0.0000  0.0000
   45MEL    N00  661  -0.606   1.975   1.947  0.0000  0.0000  0.0000
   45MEL    C01  662  -0.699   1.978   2.042  0.0000  0.0000  0.0000
   45MEL    N02  663  -0.766   2.095   2.060  0.0000  0.0000  0.0000
   45MEL    C03  664  -0.861   2.092   2.154  0.0000  0.0000  0.0000
   45MEL    N04  665  -0.925   2.210   2.179  0.0000  0.0000  0.0000
   45MEL    N05  666  -0.896   1.986   2.227  0.0000  0.0000  0.0000
   45MEL    C06  667  -0.823   1.875   2.202  0.0000  0.0000  0.0000
   45MEL    N07  668  -0.852   1.766   2.275  0.0000  0.0000  0.0000
   45MEL    N08  669  -0.722   1.866   2.114  0.0000  0.0000  0.0000
   45MEL    H09  670  -0.571   2.064   1.910  0.0000  0.0000  0.0000
   45MEL    H0A  671  -0.550   1.891   1.935  0.0000  0.0000  0.0000
   45MEL    H0B  672  -0.924   2.276   2.101  0.0000  0.0000  0.0000
   45MEL    H0C  673  -1.015   2.202   2.225  0.0000  0.0000  0.0000
   45MEL    H0D  674  -0.806   1.679   2.252  0.0000  0.0000  0.0000
   45MEL    H0E  675  -0.938   1.763   2.329  0.0000  0.0000  0.0000
   46MEL    N00  676  -1.112   1.009   2.041  0.0000  0.0000  0.0000
   46MEL    C01  677  -1.019   1.006   1.946  0.0000  0.0000  0.0000
   46MEL    N02  678  -0.952   0.889   1.928  0.0000  0.0000  0.0000
   46MEL    C03  679  -0.857   0.892   1.834  0.0000  0.0000  0.0000
   46MEL    N04  680  -0.793   0.774   1.809  0.0000  0.0000  0.0000
   46MEL    N05  681  -0.822   0.998   1.761  0.0000  0.0000  0.0000
   46MEL    C06  682  -0.895   1.109   1.786  0.0000  0.0000  0.0000
   46MEL    N07  683  -0.866   1.218   1.713  0.0000  0.0000  0.0000
   46MEL    N08  684  -0.996   1.118   1.874  0.0000  0.0000  0.0000
   46MEL    H09  685  -1.147   0.920   2.078  0.0000  0.0000  0.0000
   46MEL    H0A  686  -1.168   1.093   2.053  0.0000  0.0000  0.0000
   46MEL    H0B  687  -0.794   0.708   1.887  0.0000  0.0000  0.0000
   46MEL    H0C  688  -0.703   0.782   1.763  0.0000  0.0000  0.0000
   46MEL    H0D  689  -0.912   1.305   1.736  0.0000  0.0000  0.0000
   46MEL    H0E  690  -0.780   1.221   1.659  0.0000  0.0000  0.0000
   47MEL    N00  691  -0.591   2.348   2.041  0.0000  0.0000  0.0000
   47MEL    C01  692  -0.497   2.351   1.946  0.0000  0.0000  0.0000
   47MEL    N02  693  -0.431   2.468   1.928  0.0000  0.0000  0.0000
   47MEL    C03  694  -0.335   2.465   1.834  0.0000  0.0000  0.0000
   47MEL    N04  695  -0.272   2.583   1.809  0.0000  0.0000  0.0000
   47MEL    N05  696  -0.300   2.358   1.761  0.0000  0.0000  0.0000
   47MEL    C06  697  -0.374   2.248   1.786  0.0000  0.0000  0.0000
   47MEL    N07  698  -0.345   2.138   1.713  0.0000  0.0000  0.0000
   47MEL    N08  699  -0.475   2.239   1.874  0.0000  0.0000  0.0000
   47MEL    H09  700  -0.625   2.436   2.078  0.0000  0.0000  0.0000
   47MEL    H0A  701  -0.646   2.264   2.053  0.0000  0.0000  0.0000
   47MEL    H0B  702  -0.272   2.649   1.887  0.0000  0.0000  0.0000
   47MEL    H0C  703  -0.182   2.575   1.763  0.0000  0.0000  0.0000
   47MEL    H0D  704  -0.391   2.052   1.736  0.0000  0.0000  0.0000
   47MEL    H0E  705  -0.258   2.135   1.659  0.0000  0.0000  0.0000
   48MEL    N00  706  -0.084   1.382   1.947  0.0000  0.0000  0.0000
   48MEL    C01  707  -0.178   1.378   2.042  0.0000  0.0000  0.0000
   48MEL    N02  708  -0.244   1.262   2.060  0.0000  0.0000  0.0000
   48MEL    C03  709  -0.339   1.264   2.154  0.0000  0.0000  0.0000
   48MEL    N04  710  -0.403   1.147   2.179  0.0000  0.0000  0.0000
   48MEL    N05  711  -0.374   1.371   2.227  0.0000  0.0000  0.0000
   48MEL    C06  712  -0.301   1.482   2.202  0.0000  0.0000  0.0000
   48MEL    N07  713  -0.330   1.591   2.275  0.0000  0.0000  0.0000
   48MEL    N08  714  -0.200   1.490   2.114  0.0000  0.0000  0.0000
   48MEL    H09  715  -0.050   1.293   1.910  0.0000  0.0000  0.0000
   48MEL    H0A  716  -0.029   1.466   1.935  0.0000  0.0000  0.0000
   48MEL    H0B  717  -0.403   1.081   2.101  0.0000  0.0000  0.0000
   48MEL    H0C  718  -0.493   1.155   2.225  0.0000  0.0000  0.0000
   48MEL    H0D  719  -0.284   1.677   2.252  0.0000  0.0000  0.0000
   48MEL    H0E  720  -0.417   1.594   2.329  0.0000  0.0000  0.0000
   49MEL    N00  721   1.296   0.483  -0.047  0.0000  0.0000  0.0000
   49MEL    C01  722   1.203   0.486   0.048  0.0000  0.0000  0.0000
   49MEL    N02  723   1.136   0.603   0.066  0.0000  0.0000  0.0000
   49MEL    C03  724   1.041   0.600   0.160  0.0000  0.0000  0.0000
   49MEL    N04  725   0.977   0.718   0.185  0.0000  0.0000  0.0000
   49MEL    N05  726   1.006   0.494   0.233  0.0000  0.0000  0.0000
   49MEL    C06  727   1.079   0.383   0.208  0.0000  0.0000  0.0000
   49MEL    N07  728   1.050   0.274   0.281  0.0000  0.0000  0.0000
   49MEL    N08  729   1.180   0.374   0.120  0.0000  0.0000  0.0000
   49MEL    H09  730   1.331   0.572  -0.084  0.0000  0.0000  0.0000
   49MEL    H0A  731   1.352   0.399  -0.059  0.0000  0.0000  0.0000
   49MEL    H0B  732   0.978   0.784   0.107  0.0000  0.0000  0.0000
   49MEL    H0C  733   0.887   0.710   0.231  0.0000  0.0000  0.0000
   49MEL    H0D  734   1.096   0.187   0.258  0.0000  0.0000  0.0000
   49MEL    H0E  735   0.964   0.271   0.335  0.0000  0.0000  0.0000
   50MEL    N00  736   0.790  -0.483   0.047  0.0000  0.0000  0.0000
   50MEL    C01  737   0.883  -0.486  -0.048  0.0000  0.0000  0.0000
   50MEL    N02  738   0.950  -0.603  -0.066  0.0000  0.0000  0.0000
   50MEL    C03  739   1.045  -0.600  -0.160  0.0000  0.0000  0.0000
   50MEL    N04  740   1.109  -0.718  -0.185  0.0000  0.0000  0.0000
   50MEL    N05  741   1.080  -0.494  -0.233  0.0000  0.0000  0.0000
   50MEL    C06  742   1.007  -0.383  -0.208  0.0000  0.0000  0.0000
   50MEL    N07  743   1.036  -0.274  -0.281  0.0000  0.0000  0.0000
   50MEL    N08  744   0.906  -0.374  -0.120  0.0000  0.0000  0.0000
   50MEL    H09  745   0.755  -0.572   0.084  0.0000  0.0000  0.0000
   50MEL    H0A  746   0.734  -0.399   0.059  0.0000  0.0000  0.0000
   50MEL    H0B  747   1.108  -0.784  -0.107  0.0000  0.0000  0.0000
   50MEL    H0C  748   1.199  -0.710  -0.231  0.0000  0.0000  0.0000
   50MEL    H0D  749   0.990  -0.187  -0.258  0.0000  0.0000  0.0000
   50MEL    H0E  750   1.122  -0.271  -0.335  0.0000  0.0000  0.0000
   51MEL    N00  751   1.311   0.856   0.047  0.0000  0.0000  0.0000
   51MEL    C01  752   1.405   0.859  -0.048  0.0000  0.0000  0.0000
   51MEL    N02  753   1.471   0.976  -0.066  0.0000  0.0000  0.0000
   51MEL    C03  754   1.567   0.973  -0.160  0.0000  0.0000  0.0000
   51MEL    N04  755   1.630   1.091  -0.185  0.0000  0.0000  0.0000
   51MEL    N05  756   1.602   0.866  -0.233  0.0000  0.0000  0.0000
   51MEL    C06  757   1.528   0.756  -0.208  0.0000  0.0000  0.0000
   51MEL    N07  758   1.557   0.646  -0.281  0.0000  0.0000  0.0000
   51MEL    N08  759   1.427   0.747  -0.120  0.0000  0.0000  0.0000
   51MEL    H09  760   1.277   0.944   0.084  0.0000  0.0000  0.0000
   51MEL    H0A  761   1.256   0.772   0.059  0.0000  0.0000  0.0000
   51MEL    H0B  762   1.630   1.157  -0.107  0.0000  0.0000  0.0000
   51MEL    H0C  763   1.720   1.083  -0.231  0.0000  0.0000  0.0000
   51MEL    H0D  764   1.511   0.560  -0.258  0.0000  0.0000  0.0000
   51MEL    H0E  765   1.644   0.643  -0.335  0.0000  0.0000  0.0000
   52MEL    N00  766   1.818  -0.110  -0.047  0.0000  0.0000  0.0000
   52MEL    C01  767   1.724  -0.114   0.048  0.0000  0.0000  0.0000
   52MEL    N02  768   1.658  -0.230   0.066  0.0000  0.0000  0.0000
   52MEL    C03  769   1.563  -0.228   0.160  0.0000  0.0000  0.0000
   52MEL    N04  770   1.499  -0.345   0.185  0.0000  0.0000  0.0000
   52MEL    N05  771   1.528  -0.121   0.233  0.0000  0.0000  0.0000
   52MEL    C06  772   1.601  -0.010   0.208  0.0000  0.0000  0.0000
   52MEL    N07  773   1.572   0.099   0.281  0.0000  0.0000  0.0000
   52MEL    N08  774   1.702  -0.002   0.120  0.0000  0.0000  0.0000
   52MEL    H09  775   1.852  -0.199  -0.084  0.0000  0.0000  0.0000
   52MEL    H0A  776   1.873  -0.026  -0.059  0.0000  0.0000  0.0000
   52MEL    H0B  777   1.499  -0.411   0.107  0.0000  0.0000  0.0000
   52MEL    H0C  778   1.409  -0.337   0.231  0.0000  0.0000  0.0000
   52MEL    H0D  779   1.618   0.185   0.258  0.0000  0.0000  0.0000
   52MEL    H0E  780   1.485   0.102   0.335  0.0000  0.0000  0.0000
   53MEL    N00  781   1.010   0.483   0.618  0.0000  0.0000  0.0000
   53MEL    C01  782   0.917   0.486   0.713  0.0000  0.0000  0.0000
   53MEL    N02  783   0.850   0.603   0.731  0.0000  0.0000  0.0000
   53MEL    C03  784   0.755   0.600   0.825  0.0000  0.0000  0.0000
   53MEL    N04  785   0.691   0.718   0.850  0.0000  0.0000  0.0000
   53MEL    N05  786   0.720   0.494   0.898  0.0000  0.0000  0.0000
   53MEL    C06  787   0.793   0.383   0.873  0.0000  0.0000  0.0000
   53MEL    N07  788   0.764   0.274   0.946  0.0000  0.0000  0.0000
   53MEL    N08  789   0.894   0.374   0.785  0.0000  0.0000  0.0000
   53MEL    H09  790   1.045   0.572   0.581  0.0000  0.0000  0.0000
   53MEL    H0A  791   1.066   0.399   0.606  0.0000  0.0000  0.0000
   53MEL    H0B  792   0.692   0.784   0.772  0.0000  0.0000  0.0000
   53MEL    H0C  793   0.601   0.710   0.896  0.0000  0.0000  0.0000
   53MEL    H0D  794   0.810   0.187   0.923  0.0000  0.0000  0.0000
   53MEL    H0E  795   0.678   0.271   1.000  0.0000  0.0000  0.0000
   54MEL    N00  796   0.504  -0.483   0.712  0.0000  0.0000  0.0000
   54MEL    C01  797   0.597  -0.486   0.617  0.0000  0.0000  0.0000
   54MEL    N02  798   0.664  -0.603   0.599  0.0000  0.0000  0.0000
   54MEL    C03  799   0.759  -0.600   0.505  0.0000  0.0000  0.0000
   54MEL    N04  800   0.823  -0.718   0.480  0.0000  0.0000  0.0000
   54MEL    N05  801   0.794  -0.494   0.432  0.0000  0.0000  0.0000
   54MEL    C06  802   0.721  -0.383   0.457  0.0000  0.0000  0.0000
   54MEL    N07  803   0.750  -0.274   0.384  0.0000  0.0000  0.0000
   54MEL    N08  804   0.620  -0.374   0.545  0.0000  0.0000  0.0000
   54MEL    H09  805   0.469  -0.572   0.749  0.0000  0.0000  0.0000
   54MEL    H0A  806   0.448  -0.399   0.724  0.0000  0.0000  0.0000
   54MEL    H0B  807   0.822  -0.784   0.558  0.0000  0.0000  0.0000
   54MEL    H0C  808   0.913  -0.710   0.434  0.0000  0.0000  0.0000
   54MEL    H0D  809   0.704  -0.187   0.407  0.0000  0.0000  0.0000
   54MEL    H0E  810   0.836  -0.271   0.330  0.0000  0.0000  0.0000
   55MEL    N00  811   1.025   0.856   0.712  0.0000  0.0000  0.0000
   55MEL    C01  812   1.119   0.859   0.617  0.0000  0.0000  0.0000
   55MEL    N02  813   1.185   0.976   0.599  0.0000  0.0000  0.0000
   55MEL    C03  814   1.281   0.973   0.505  0.0000  0.0000  0.0000
   55MEL    N04  815   1.344   1.091   0.480  0.0000  0.0000  0.0000
   55MEL    N05  816   1.316   0.866   0.432  0.0000  0.0000  0.0000
   55MEL    C06  817   1.242   0.756   0.457  0.0000  0.0000  0.0000
   55MEL    N07  818   1.271   0.646   0.384  0.0000  0.0000  0.0000
   55MEL    N08  819   1.141   0.747   0.545  0.0000  0.0000  0.0000
   55MEL    H09  820   0.991   0.944   0.749  0.0000  0.0000  0.0000
   55MEL    H0A  821   0.970   0.772   0.724  0.0000  0.0000  0.0000
   55MEL    H0B  822   1.344   1.157   0.558  0.0000  0.0000  0.0000
   55MEL    H0C  823   1.434   1.083   0.434  0.0000  0.0000  0.0000
   55MEL    H0D  824   1.225   0.560   0.407  0.0000  0.0000  0.0000
   55MEL    H0E  825   1.358   0.643   0.330  0.0000  0.0000  0.0000
   56MEL    N00  826   1.532  -0.110   0.618  0.0000  0.0000  0.0000
   56MEL    C01  827   1.438  -0.114   0.713  0.0000  0.0000  0.0000
   56MEL    N02  828   1.372  -0.230   0.731  0.0000  0.0000  0.0000
   56MEL    C03  829   1.277  -0.228   0.825  0.0000  0.0000  0.0000
   56MEL    N04  830   1.213  -0.345   0.850  0.0000  0.0000  0.0000
   56MEL    N05  831   1.242  -0.121   0.898  0.0000  0.0000  0.0000
   56MEL    C06  832   1.315  -0.010   0.873  0.0000  0.0000  0.0000
   56MEL    N07  833   1.286   0.099   0.946  0.0000  0.0000  0.0000
   56MEL    N08  834   1.416  -0.002   0.785  0.0000  0.0000  0.0000
   56MEL    H09  835   1.566  -0.199   0.581  0.0000  0.0000  0.0000
   56MEL    H0A  836   1.587  -0.026   0.606  0.0000  0.0000  0.0000
   56MEL    H0B  837   1.213  -0.411   0.772  0.0000  0.0000  0.0000
   56MEL    H0C  838   1.123  -0.337   0.896  0.0000  0.0000  0.0000
   56MEL    H0D  839   1.332   0.185   0.923  0.0000  0.0000  0.0000
   56MEL    H0E  840   1.199   0.102   1.000  0.0000  0.0000  0.0000
   57MEL    N00  841   0.724   0.483   1.283  0.0000  0.0000  0.0000
   57MEL    C01  842   0.631   0.486   1.378  0.0000  0.0000  0.0000
   57MEL    N02  843   0.564   0.603   1.396  0.0000  0.0000  0.0000
   57MEL    C03  844   0.469   0.600   1.490  0.0000  0.0000  0.0000
   57MEL    N04  845   0.405   0.718   1.515  0.0000  0.0000  0.0000
   57MEL    N05  846   0.434   0.494   1.563  0.0000  0.0000  0.0000
   57MEL    C06  847   0.507   0.383   1.538  0.0000  0.0000  0.0000
   57MEL    N07  848   0.478   0.274   1.611  0.0000  0.0000  0.0000
   57MEL    N08  849   0.608   0.374   1.450  0.0000  0.0000  0.0000
   57MEL    H09  850   0.759   0.572   1.246  0.0000  0.0000  0.0000
   57MEL    H0A  851   0.780   0.399   1.271  0.0000  0.0000  0.0000
   57MEL    H0B  852   0.406   0.784   1.437  0.0000  0.0000  0.0000
   57MEL    H0C  853   0.315   0.710   1.561  0.0000  0.0000  0.0000
   57MEL    H0D  854   0.524   0.187   1.588  0.0000  0.0000  0.0000
   57MEL    H0E  855   0.392   0.271   1.665  0.0000  0.0000  0.0000
   58MEL    N00  856   0.218  -0.483   1.377  0.0000  0.0000  0.0000
   58MEL    C01  857   0.311  -0.486   1.282  0.0000  0.0000  0.0000
   58MEL    N02  858   0.378  -0.603   1.264  0.0000  0.0000  0.0000
   58MEL    C03  859   0.473  -0.600   1.170  0.0000  0.0000  0.0000
   58MEL    N04  860   0.537  -0.718   1.145  0.0000  0.0000  0.0000
   58MEL    N05  861   0.508  -0.494   1.097  0.0000  0.0000  0.0000
   58MEL    C06  862   0.435  -0.383   1.122  0.0000  0.0000  0.0000
   58MEL    N07  863   0.464  -0.274   1.049  0.0000  0.0000  0.0000
   58MEL    N08  864   0.334  -0.374   1.210  0.0000  0.0000  0.0000
   58MEL    H09  865   0.183  -0.572   1.414  0.0000  0.0000  0.0000
   58MEL    H0A  866   0.162  -0.399   1.389  0.0000  0.0000  0.0000
   58MEL    H0B  867   0.536  -0.784   1.223  0.0000  0.0000  0.0000
   58MEL    H0C  868   0.627  -0.710   1.099  0.0000  0.0000  0.0000
   58MEL    H0D  869   0.418  -0.187   1.072  0.0000  0.0000  0.0000
   58MEL    H0E  870   0.550  -0.271   0.995  0.0000  0.0000  0.0000
   59MEL    N00  871   0.739   0.856   1.377  0.0000  0.0000  0.0000
   59MEL    C01  872   0.833   0.859   1.282  0.0000  0.0000  0.0000
   59MEL    N02  873   0.899   0.976   1.264  0.0000  0.0000  0.0000
   59MEL    C03  874   0.995   0.973   1.170  0.0000  0.0000  0.0000
   59MEL    N04  875   1.058   1.091   1.145  0.0000  0.0000  0.0000
   59MEL    N05  876   1.030   0.866   1.097  0.0000  0.0000  0.0000
   59MEL    C06  877   0.956   0.756   1.122  0.0000  0.0000  0.0000
   59MEL    N07  878   0.985   0.646   1.049  0.0000  0.0000  0.0000
   59MEL    N08  879   0.855   0.747   1.210  0.0000  0.0000  0.0000
   59MEL    H09  880   0.705   0.944   1.414  0.0000  0.0000  0.0000
   59MEL    H0A  881   0.684   0.772   1.389  0.0000  0.0000  0.0000
   59MEL    H0B  882   1.058   1.157   1.223  0.0000  0.0000  0.0000
   59MEL    H0C  883   1.148   1.083   1.099  0.0000  0.0000  0.0000
   59MEL    H0D  884   0.939   0.560   1.072  0.0000  0.0000  0.0000
   59MEL    H0E  885   1.072   0.643   0.995  0.0000  0.0000  0.0000
   60MEL    N00  886   1.246  -0.110   1.283  0.0000  0.0000  0.0000
   60MEL    C01  887   1.152  -0.114   1.378  0.0000  0.0000  0.0000
   60MEL    N02  888   1.086  -0.230   1.396  0.0000  0.0000  0.0000
   60MEL    C03  889   0.991  -0.228   1.490  0.0000  0.0000  0.0000
   60MEL    N04  890   0.927  -0.345   1.515  0.0000  0.0000  0.0000
   60MEL    N05  891   0.956  -0.121   1.563  0.0000  0.0000  0.0000
   60MEL    C06  892   1.029  -0.010   1.538  0.0000  0.0000  0.0000
   60MEL    N07  893   1.000   0.099   1.611  0.0000  0.0000  0.0000
   60MEL    N08  894   1.130  -0.002   1.450  0.0000  0.0000  0.0000
   60MEL    H09  895   1.280  -0.199   1.246  0.0000  0.0000  0.0000
   60MEL    H0A  896   1.301  -0.026   1.271  0.0000  0.0000  0.0000
   60MEL    H0B  897   0.927  -0.411   1.437  0.0000  0.0000  0.0000
   60MEL    H0C  898   0.837  -0.337   1.561  0.0000  0.0000  0.0000
   60MEL    H0D  899   1.046   0.185   1.588  0.0000  0.0000  0.0000
   60MEL    H0E  900   0.913   0.102   1.665  0.0000  0.0000  0.0000
   61MEL    N00  901   0.437   0.483   1.947  0.0000  0.0000  0.0000
   61MEL    C01  902   0.344   0.486   2.042  0.0000  0.0000  0.0000
   61MEL    N02  903   0.277   0.603   2.060  0.0000  0.0000  0.0000
   61MEL    C03  904   0.182   0.600   2.154  0.0000  0.0000  0.0000
   61MEL    N04  905   0.118   0.718   2.179  0.0000  0.0000  0.0000
   61MEL    N05  906   0.147   0.494   2.227  0.0000  0.0000  0.0000
   61MEL    C06  907   0.220   0.383   2.202  0.0000  0.0000  0.0000
   61MEL    N07  908   0.191   0.274   2.275  0.0000  0.0000  0.0000
   61MEL    N08  909   0.321   0.374   2.114  0.0000  0.0000  0.0000
   61MEL    H09  910   0.472   0.572   1.910  0.0000  0.0000  0.0000
   61MEL    H0A  911   0.493   0.399   1.935  0.0000  0.0000  0.0000
   61MEL    H0B  912   0.119   0.784   2.101  0.0000  0.0000  0.0000
   61MEL    H0C  913   0.028   0.710   2.225  0.0000  0.0000  0.0000
   61MEL    H0D  914   0.237   0.187   2.252  0.0000  0.0000  0.0000
   61MEL    H0E  915   0.105   0.271   2.329  0.0000  0.0000  0.0000
   62MEL    N00  916  -0.069  -0.483   2.041  0.0000  0.0000  0.0000
   62MEL    C01  917   0.024  -0.486   1.946  0.0000  0.0000  0.0000
   62MEL    N02  918   0.091  -0.603   1.928  0.0000  0.0000  0.0000
   62MEL    C03  919   0.186  -0.600   1.834  0.0000  0.0000  0.0000
   62MEL    N04  920   0.250  -0.718   1.809  0.0000  0.0000  0.0000
   62MEL    N05  921   0.221  -0.494   1.761  0.0000  0.0000  0.0000
   62MEL    C06  922   0.148  -0.383   1.786  0.0000  0.0000  0.0000
   62MEL    N07  923   0.177  -0.274   1.713  0.0000  0.0000  0.0000
   62MEL    N08  924   0.047  -0.374   1.874  0.0000  0.0000  0.0000
   62MEL    H09  925  -0.104  -0.572   2.078  0.0000  0.0000  0.0000
   62MEL    H0A  926  -0.125  -0.399   2.053  0.0000  0.0000  0.0000
   62MEL    H0B  927   0.249  -0.784   1.887  0.0000  0.0000  0.0000
   62MEL    H0C  928   0.340  -0.710   1.763  0.0000  0.0000  0.0000
   62MEL    H0D  929   0.131  -0.187   1.736  0.0000  0.0000  0.0000
   62MEL    H0E  930   0.263  -0.271   1.659  0.0000  0.0000  0.0000
   63MEL    N00  931   0.452   0.856   2.041  0.0000  0.0000  0.0000
   63MEL    C01  932   0.546   0.859   1.946  0.0000  0.0000  0.0000
   63MEL    N02  933   0.612   0.976   1.928  0.0000  0.0000  0.0000
   63MEL    C03  934   0.708   0.973   1.834  0.0000  0.0000  0.0000
   63MEL    N04  935   0.771   1.091   1.809  0.0000  0.0000  0.0000
   63MEL    N05  936   0.743   0.866   1.761  0.0000  0.0000  0.0000
   63MEL    C06  937   0.669   0.756   1.786  0.0000  0.0000  0.0000
   63MEL    N07  938   0.698   0.646   1.713  0.0000  0.0000  0.0000
   63MEL    N08  939   0.568   0.747   1.874  0.0000  0.0000  0.0000
   63MEL    H09  940   0.418   0.944   2.078  0.0000  0.0000  0.0000
   63MEL    H0A  941   0.397   0.772   2.053  0.0000  0.0000  0.0000
   63MEL    H0B  942   0.771   1.157   1.887  0.0000  0.0000  0.0000
   63MEL    H0C  943   0.861   1.083   1.763  0.0000  0.0000  0.0000
   63MEL    H0D  944   0.652   0.560   1.736  0.0000  0.0000  0.0000
   63MEL    H0E  945   0.785   0.643   1.659  0.0000  0.0000  0.0000
   64MEL    N00  946   0.959  -0.110   1.947  0.0000  0.0000  0.0000
   64MEL    C01  947   0.865  -0.114   2.042  0.0000  0.0000  0.0000
   64MEL    N02  948   0.799  -0.230   2.060  0.0000  0.0000  0.0000
   64MEL    C03  949   0.704  -0.228   2.154  0.0000  0.0000  0.0000
   64MEL    N04  950   0.640  -0.345   2.179  0.0000  0.0000  0.0000
   64MEL    N05  951   0.669  -0.121   2.227  0.0000  0.0000  0.0000
   64MEL    C06  952   0.742  -0.010   2.202  0.0000  0.0000  0.0000
   64MEL    N07  953   0.713   0.099   2.275  0.0000  0.0000  0.0000
   64MEL    N08  954   0.843  -0.002   2.114  0.0000  0.0000  0.0000
   64MEL    H09  955   0.993  -0.199   1.910  0.0000  0.0000  0.0000
   64MEL    H0A  956   1.014  -0.026   1.935  0.0000  0.0000  0.0000
   64MEL    H0B  957   0.640  -0.411   2.101  0.0000  0.0000  0.0000
   64MEL    H0C  958   0.550  -0.337   2.225  0.0000  0.0000  0.0000
   64MEL    H0D  959   0.759   0.185   2.252  0.0000  0.0000  0.0000
   64MEL    H0E  960   0.626   0.102   2.329  0.0000  0.0000  0.0000
   65MEL    N00  961   1.296   1.229  -0.047  0.0000  0.0000  0.0000
   65MEL    C01  962   1.203   1.232   0.048  0.0000  0.0000  0.0000
   65MEL    N02  963   1.136   1.349   0.066  0.0000  0.0000  0.0000
   65MEL    C03  964   1.041   1.346   0.160  0.0000  0.0000  0.0000
   65MEL    N04  965   0.977   1.464   0.185  0.0000  0.0000  0.0000
   65MEL    N05  966   1.006   1.240   0.233  0.0000  0.0000  0.0000
   65MEL    C06  967   1.079   1.129   0.208  0.0000  0.0000  0.0000
   65MEL    N07  968   1.050   1.020   0.281  0.0000  0.0000  0.0000
   65MEL    N08  969   1.180   1.120   0.120  0.0000  0.0000  0.0000
   65MEL    H09  970   1.331   1.318  -0.084  0.0000  0.0000  0.0000
   65MEL    H0A  971   1.352   1.145  -0.059  0.0000  0.0000  0.0000
   65MEL    H0B  972   0.978   1.530   0.107  0.0000  0.0000  0.0000
   65MEL    H0C  973   0.887   1.456   0.231  0.0000  0.0000  0.0000
   65MEL    H0D  974   1.096   0.933   0.258  0.0000  0.0000  0.0000
   65MEL    H0E  975   0.964   1.017   0.335  0.0000  0.0000  0.0000
   66MEL    N00  976   0.790   0.263   0.047  0.0000  0.0000  0.0000
   66MEL    C01  977   0.883   0.260  -0.048  0.0000  0.0000  0.0000
   66MEL    N02  978   0.950   0.143  -0.066  0.0000  0.0000  0.0000
   66MEL    C03  979   1.045   0.146  -0.160  0.0000  0.0000  0.0000
   66MEL    N04  980   1.109   0.028  -0.185  0.0000  0.0000  0.0000
   66MEL    N05  981   1.080   0.252  -0.233  0.0000  0.0000  0.0000
   66MEL    C06  982   1.007   0.363  -0.208  0.0000  0.0000  0.0000
   66MEL    N07  983   1.036   0.472  -0.281  0.0000  0.0000  0.0000
   66MEL    N08  984   0.906   0.372  -0.120  0.0000  0.0000  0.0000
   66MEL    H09  985   0.755   0.174   0.084  0.0000  0.0000  0.0000
   66MEL    H0A  986   0.734   0.347   0.059  0.0000  0.0000  0.0000
   66MEL    H0B  987   1.108  -0.038  -0.107  0.0000  0.0000  0.0000
   66MEL    H0C  988   1.199   0.036  -0.231  0.0000  0.0000  0.0000
   66MEL    H0D  989   0.990   0.559  -0.258  0.0000  0.0000  0.0000
   66MEL    H0E  990   1.122   0.475  -0.335  0.0000  0.0000  0.0000
   67MEL    N00  991   1.311   1.602   0.047  0.0000  0.0000  0.0000
   67MEL    C01  992   1.405   1.605  -0.048  0.0000  0.0000  0.0000
   67MEL    N02  993   1.471   1.722  -0.066  0.0000  0.0000  0.0000
   67MEL    C03  994   1.567   1.719  -0.160  0.0000  0.0000  0.0000
   67MEL    N04  995   1.630   1.837  -0.185  0.0000  0.0000  0.0000
   67MEL    N05  996   1.602   1.612  -0.233  0.0000  0.0000  0.0000
   67MEL    C06  997   1.528   1.502  -0.208  0.0000  0.0000  0.0000
   67MEL    N07  998   1.557   1.392  -0.281  0.0000  0.0000  0.0000
   67MEL    N08  999   1.427   1.493  -0.120  0.0000  0.0000  0.0000
   67MEL    H09 1000   1.277   1.690   0.084  0.0000  0.0000  0.0000
   67MEL    H0A 1001   1.256   1.518   0.059  0.0000  0.0000  0.0000
   67MEL    H0B 1002   1.630   1.903  -0.107  0.0000  0.0000  0.0000
   67MEL    H0C 1003   1.720   1.829  -0.231  0.0000  0.0000  0.0000
   67MEL    H0D 1004   1.511   1.306  -0.258  0.0000  0.0000  0.0000
   67MEL    H0E 1005   1.644   1.389  -0.335  0.0000  0.0000  0.0000
   68MEL    N00 1006   1.818   0.636  -0.047  0.0000  0.0000  0.0000
   68MEL    C01 1007   1.724   0.632   0.048  0.0000  0.0000  0.0000
   68MEL    N02 1008   1.658   0.516   0.066  0.0000  0.0000  0.0000
   68MEL    C03 1009   1.563   0.518   0.160  0.0000  0.0000  0.0000
   68MEL    N04 1010   1.499   0.401   0.185  0.0000  0.0000  0.0000
   68MEL    N05 1011   1.528   0.625   0.233  0.0000  0.0000  0.0000
   68MEL    C06 1012   1.601   0.736   0.208  0.0000  0.0000  0.0000
   68MEL    N07 1013   1.572   0.845   0.281  0.0000  0.0000  0.0000
   68MEL    N08 1014   1.702   0.744   0.120  0.0000  0.0000  0.0000
   68MEL    H09 1015   1.852   0.547  -0.084  0.0000  0.0000  0.0000
   68MEL    H0A 1016   1.873   0.720  -0.059  0.0000  0.0000  0.0000
   68MEL    H0B 1017   1.499   0.335   0.107  0.0000  0.0000  0.0000
   68MEL    H0C 1018   1.409   0.409   0.231  0.0000  0.0000  0.0000
   68MEL    H0D 1019   1.618   0.931   0.258  0.0000  0.0000  0.0000
   68MEL    H0E 1020   1.485   0.848   0.335  0.0000  0.0000  0.0000
   69MEL    N00 1021   1.010   1.229   0.618  0.0000  0.0000  0.0000
   69MEL    C01 1022   0.917   1.232   0.713  0.0000  0.0000  0.0000
   69MEL    N02 1023   0.850   1.349   0.731  0.0000  0.0000  0.0000
   69MEL    C03 1024   0.755   1.346   0.825  0.0000  0.0000  0.0000
   69MEL    N04 1025   0.691   1.464   0.850  0.0000  0.0000  0.0000
   69MEL    N05 1026   0.720   1.240   0.898  0.0000  0.0000  0.0000
   69MEL    C06 1027   0.793   1.129   0.873  0.0000  0.0000  0.0000
   69MEL    N07 1028   0.764   1.020   0.946  0.0000  0.0000  0.0000
   69MEL    N08 1029   0.894   1.120   0.785  0.0000  0.0000  0.0000
   69MEL    H09 1030   1.045   1.318   0.581  0.0000  0.0000  0.0000
   69MEL    H0A 1031   1.066   1.145   0.606  0.0000  0.0000  0.0000
   69MEL    H0B 1032   0.692   1.530   0.772  0.0000  0.0000  0.0000
   69MEL    H0C 1033   0.601   1.456   0.896  0.0000  0.0000  0.0000
   69MEL    H0D 1034   0.810   0.933   0.923  0.0000  0.0000  0.0000
   69MEL    H0E 1035   0.678   1.017   1.000  0.0000  0.0000  0.0000
   70MEL    N00 1036   0.504   0.263   0.712  0.0000  0.0000  0.0000
   70MEL    C01 1037   0.597   0.260   0.617  0.0000  0.0000  0.0000
   70MEL    N02 1038   0.664   0.143   0.599  0.0000  0.0000  0.0000
   70MEL    C03 1039   0.759   0.146   0.505  0.0000  0.0000  0.0000
   70MEL    N04 1040   0.823   0.028   0.480  0.0000  0.0000  0.0000
   70MEL    N05 1041   0.794   0.252   0.432  0.0000  0.0000  0.0000
   70MEL    C06 1042   0.721   0.363   0.457  0.0000  0.0000  0.0000
   70MEL    N07 1043   0.750   0.472   0.384  0.0000  0.0000  0.0000
   70MEL    N08 1044   0.620   0.372   0.545  0.0000  0.0000  0.0000
   70MEL    H09 1045   0.469   0.174   0.749  0.0000  0.0000  0.0000
   70MEL    H0A 1046   0.448   0.347   0.724  0.0000  0.0000  0.0000
   70MEL    H0B 1047   0.822  -0.038   0.558  0.0000  0.0000  0.0000
   70MEL    H0C 1048   0.913   0.036   0.434  0.0000  0.0000  0.0000
   70MEL    H0D 1049   0.704   0.559   0.407  0.0000  0.0000  0.0000
   70MEL    H0E 1050   0.836   0.475   0.330  0.0000  0.0000  0.0000
   71MEL    N00 1051   1.025   1.602   0.712  0.0000  0.0000  0.0000
   71MEL    C01 1052   1.119   1.605   0.617  0.0000  0.0000  0.0000
   71MEL    N02 1053   1.185   1.722   0.599  0.0000  0.0000  0.0000
   71MEL    C03 1054   1.281   1.719   0.505  0.0000  0.0000  0.0000
   71MEL    N04 1055   1.344   1.837   0.480  0.0000  0.0000  0.0000
   71MEL    N05 1056   1.316   1.612   0.432  0.0000  0.0000  0.0000
   71MEL    C06 1057   1.242   1.502   0.457  0.0000  0.0000  0.0000
   71MEL    N07 1058   1.271   1.392   0.384  0.0000  0.0000  0.0000
   71MEL    N08 1059   1.141   1.493   0.545  0.0000  0.0000  0.0000
   71MEL    H09 1060   0.991   1.690   0.749  0.0000  0.0000  0.0000
   71MEL    H0A 1061   0.970   1.518   0.724  0.0000  0.0000  0.0000
   71MEL    H0B 1062   1.344   1.903   0.558  0.0000  0.0000  0.0000
   71MEL    H0C 1063   1.434   1.829   0.434  0.0000  0.0000  0.0000
   71MEL    H0D 1064   1.225   1.306   0.407  0.0000  0.0000  0.0000
   71MEL    H0E 1065   1.358   1.389   0.330  0.0000  0.0000  0.0000
   72MEL    N00 1066   1.532   0.636   0.618  0.0000  0.0000  0.0000
   72MEL    C01 1067   1.438   0.632   0.713  0.0000  0.0000  0.0000
   72MEL    N02 1068   1.372   0.516   0.731  0.0000  0.0000  0.0000
   72MEL    C03 1069   1.277   0.518   0.825  0.0000  0.0000  0.0000
   72MEL    N04 1070   1.213   0.401   0.850  0.0000  0.0000  0.0000
   72MEL    N05 1071   1.242   0.625   0.898  0.0000  0.0000  0.0000
   72MEL    C06 1072   1.315   0.736   0.873  0.0000  0.0000  0.0000
   72MEL    N07 1073   1.286   0.845   0.946  0.0000  0.0000  0.0000
   72MEL    N08 1074   1.416   0.744   0.785  0.0000  0.0000  0.0000
   72MEL    H09 1075   1.566   0.547   0.581  0.0000  0.0000  0.0000
   72MEL    H0A 1076   1.587   0.720   0.606  0.0000  0.0000  0.0000
   72MEL    H0B 1077   1.213   0.335   0.772  0.0000  0.0000  0.0000
   72MEL    H0C 1078   1.123   0.409   0.896  0.0000  0.0000  0.0000
   72MEL    H0D 1079   1.332   0.931   0.923  0.0000  0.0000  0.0000
   72MEL    H0E 1080   1.199   0.848   1.000  0.0000  0.0000  0.0000
   73MEL    N00 1081   0.724   1.229   1.283  0.0000  0.0000  0.0000
   73MEL    C01 1082   0.631   1.232   1.378  0.0000  0.0000  0.0000
   73MEL    N02 1083   0.564   1.349   1.396  0.0000  0.0000  0.0000
   73MEL    C03 1084   0.469   1.346   1.490  0.0000  0.0000  0.0000
   73MEL    N04 1085   0.405   1.464   1.515  0.0000  0.0000  0.0000
   73MEL    N05 1086   0.434   1.240   1.563  0.0000  0.0000  0.0000
   73MEL    C06 1087   0.507   1.129   1.538  0.0000  0.0000  0.0000
   73MEL    N07 1088   0.478   1.020   1.611  0.0000  0.0000  0.0000
   73MEL    N08 1089   0.608   1.120   1.450  0.0000  0.0000  0.0000
   73MEL    H09 1090   0.759   1.318   1.246  0.0000  0.0000  0.0000
   73MEL    H0A 1091   0.780   1.145   1.271  0.0000  0.0000  0.0000
   73MEL    H0B 1092   0.406   1.530   1.437  0.0000  0.0000  0.0000
   73MEL    H0C 1093   0.315   1.456   1.561  0.0000  0.0000  0.0000
   73MEL    H0D 1094   0.524   0.933   1.588  0.0000  0.0000  0.0000
   73MEL    H0E 1095   0.392   1.017   1.665  0.0000  0.0000  0.0000
   74MEL    N00 1096   0.218   0.263   1.377  0.0000  0.0000  0.0000
   74MEL    C01 1097   0.311   0.260   1.282  0.0000  0.0000  0.0000
   74MEL    N02 1098   0.378   0.143   1.264  0.0000  0.0000  0.0000
   74MEL    C03 1099   0.473   0.146   1.170  0.0000  0.0000  0.0000
   74MEL    N04 1100   0.537   0.028   1.145  0.0000  0.0000  0.0000
   74MEL    N05 1101   0.508   0.252   1.097  0.0000  0.0000  0.0000
   74MEL    C06 1102   0.435   0.363   1.122  0.0000  0.0000  0.0000
   74MEL    N07 1103   0.464   0.472   1.049  0.0000  0.0000  0.0000
   74MEL    N08 1104   0.334   0.372   1.210  0.0000  0.0000  0.0000
   74MEL    H09 1105   0.183   0.174   1.414  0.0000  0.0000  0.0000
   74MEL    H0A 1106   0.162   0.347   1.389  0.0000  0.0000  0.0000
   74MEL    H0B 1107   0.536  -0.038   1.223  0.0000  0.0000  0.0000
   74MEL    H0C 1108   0.627   0.036   1.099  0.0000  0.0000  0.0000
   74MEL    H0D 1109   0.418   0.559   1.072  0.0000  0.0000  0.0000
   74MEL    H0E 1110   0.550   0.475   0.995  0.0000  0.0000  0.0000
   75MEL    N00 1111   0.739   1.602   1.377  0.0000  0.0000  0.0000
   75MEL    C01 1112   0.833   1.605   1.282  0.0000  0.0000  0.0000
   75MEL    N02 1113   0.899   1.722   1.264  0.0000  0.0000  0.0000
   75MEL    C03 1114   0.995   1.719   1.170  0.0000  0.0000  0.0000
   75MEL    N04 1115   1.058   1.837   1.145  0.0000  0.0000  0.0000
   75MEL    N05 1116   1.030   1.612   1.097  0.0000  0.0000  0.0000
   75MEL    C06 1117   0.956   1.502   1.122  0.0000  0.0000  0.0000
   75MEL    N07 1118   0.985   1.392   1.049  0.0000  0.0000  0.0000
   75MEL    N08 1119   0.855   1.493   1.210  0.0000  0.0000  0.0000
   75MEL    H09 1120   0.705   1.690   1.414  0.0000  0.0000  0.0000
   75MEL    H0A 1121   0.684   1.518   1.389  0.0000  0.0000  0.0000
   75MEL    H0B 1122   1.058   1.903   1.223  0.0000  0.0000  0.0000
   75MEL    H0C 1123   1.148   1.829   1.099  0.0000  0.0000  0.0000
   75MEL    H0D 1124   0.939   1.306   1.072  0.0000  0.0000  0.0000
   75MEL    H0E 1125   1.072   1.389   0.995  0.0000  0.0000  0.0000
   76MEL    N00 1126   1.246   0.636   1.283  0.0000  0.0000  0.0000
   76MEL    C01 1127   1.152   0.632   1.378  0.0000  0.0000  0.0000
   76MEL    N02 1128   1.086   0.516   1.396  0.0000  0.0000  0.0000
   76MEL    C03 1129   0.991   0.518   1.490  0.0000  0.0000  0.0000
   76MEL    N04 1130   0.927   0.401   1.515  0.0000  0.0000  0.0000
   76MEL    N05 1131   0.956   0.625   1.563  0.0000  0.0000  0.0000
   76MEL    C06 1132   1.029   0.736   1.538  0.0000  0.0000  0.0000
   76MEL    N07 1133   1.000   0.845   1.611  0.0000  0.0000  0.0000
   76MEL    N08 1134   1.130   0.744   1.450  0.0000  0.0000  0.0000
   76MEL    H09 1135   1.280   0.547   1.246  0.0000  0.0000  0.0000
   76MEL    H0A 1136   1.301   0.720   1.271  0.0000  0.0000  0.0000
   76MEL    H0B 1137   0.927   0.335   1.437  0.0000  0.0000  0.0000
   76MEL    H0C 1138   0.837   0.409   1.561  0.0000  0.0000  0.0000
   76MEL    H0D 1139   1.046   0.931   1.588  0.0000  0.0000  0.0000
   76MEL    H0E 1140   0.913   0.848   1.665  0.0000  0.0000  0.0000
   77MEL    N00 1141   0.437   1.229   1.947  0.0000  0.0000  0.0000
   77MEL    C01 1142   0.344   1.232   2.042  0.0000  0.0000  0.0000
   77MEL    N02 1143   0.277   1.349   2.060  0.0000  0.0000  0.0000
   77MEL    C03 1144   0.182   1.346   2.154  0.0000  0.0000  0.0000
   77MEL    N04 1145   0.118   1.464   2.179  0.0000  0.0000  0.0000
   77MEL    N05 1146   0.147   1.240   2.227  0.0000  0.0000  0.0000
   77MEL    C06 1147   0.220   1.129   2.202  0.0000  0.0000  0.0000
   77MEL    N07 1148   0.191   1.020   2.275  0.0000  0.0000  0.0000
   77MEL    N08 1149   0.321   1.120   2.114  0.0000  0.0000  0.0000
   77MEL    H09 1150   0.472   1.318   1.910  0.0000  0.0000  0.0000
   77MEL    H0A 1151   0.493   1.145   1.935  0.0000  0.0000  0.0000
   77MEL    H0B 1152   0.119   1.530   2.101  0.0000  0.0000  0.0000
   77MEL    H0C 1153   0.028   1.456   2.225  0.0000  0.0000  0.0000
   77MEL    H0D 1154   0.237   0.933   2.252  0.0000  0.0000  0.0000
   77MEL    H0E 1155   0.105   1.017   2.329  0.0000  0.0000  0.0000
   78MEL    N00 1156  -0.069   0.263   2.041  0.0000  0.0000  0.0000
   78MEL    C01 1157   0.024   0.260   1.946  0.0000  0.0000  0.0000
   78MEL    N02 1158   0.091   0.143   1.928  0.0000  0.0000  0.0000
   78MEL    C03 1159   0.186   0.146   1.834  0.0000  0.0000  0.0000
   78MEL    N04 1160   0.250   0.028   1.809  0.0000  0.0000  0.0000
   78MEL    N05 1161   0.221   0.252   1.761  0.0000  0.0000  0.0000
   78MEL    C06 1162   0.148   0.363   1.786  0.0000  0.0000  0.0000
   78MEL    N07 1163   0.177   0.472   1.713  0.0000  0.0000  0.0000
   78MEL    N08 1164   0.047   0.372   1.874  0.0000  0.0000  0.0000
   78MEL    H09 1165  -0.104   0.174   2.078  0.0000  0.0000  0.0000
   78MEL    H0A 1166  -0.125   0.347   2.053  0.0000  0.0000  0.0000
   78MEL    H0B 1167   0.249  -0.038   1.887  0.0000  0.0000  0.0000
   78MEL    H0C 1168   0.340   0.036   1.763  0.0000  0.0000  0.0000
   78MEL    H0D 1169   0.131   0.559   1.736  0.0000  0.0000  0.0000
   78MEL    H0E 1170   0.263   0.475   1.659  0.0000  0.0000  0.0000
   79MEL    N00 1171   0.452   1.602   2.041  0.0000  0.0000  0.0000
   79MEL    C01 1172   0.546   1.605   1.946  0.0000  0.0000  0.0000
   79MEL    N02 1173   0.612   1.722   1.928  0.0000  0.0000  0.0000
   79MEL    C03 1174   0.708   1.719   1.834  0.0000  0.0000  0.0000
   79MEL    N04 1175   0.771   1.837   1.809  0.0000  0.0000  0.0000
   79MEL    N05 1176   0.743   1.612   1.761  0.0000  0.0000  0.0000
   79MEL    C06 1177   0.669   1.502   1.786  0.0000  0.0000  0.0000
   79MEL    N07 1178   0.698   1.392   1.713  0.0000  0.0000  0.0000
   79MEL    N08 1179   0.568   1.493   1.874  0.0000  0.0000  0.0000
   79MEL    H09 1180   0.418   1.690   2.078  0.0000  0.0000  0.0000
   79MEL    H0A 1181   0.397   1.518   2.053  0.0000  0.0000  0.0000
   79MEL    H0B 1182   0.771   1.903   1.887  0.0000  0.0000  0.0000
   79MEL    H0C 1183   0.861   1.829   1.763  0.0000  0.0000  0.0000
   79MEL    H0D 1184   0.652   1.306   1.736  0.0000  0.0000  0.0000
   79MEL    H0E 1185   0.785   1.389   1.659  0.0000  0.0000  0.0000
   80MEL    N00 1186   0.959   0.636   1.947  0.0000  0.0000  0.0000
   80MEL    C01 1187   0.865   0.632   2.042  0.0000  0.0000  0.0000
   80MEL    N02 1188   0.799   0.516   2.060  0.0000  0.0000  0.0000
   80MEL    C03 1189   0.704   0.518   2.154  0.0000  0.0000  0.0000
   80MEL    N04 1190   0.640   0.401   2.179  0.0000  0.0000  0.0000
   80MEL    N05 1191   0.669   0.625   2.227  0.0000  0.0000  0.0000
   80MEL    C06 1192   0.742   0.736   2.202  0.0000  0.0000  0.0000
   80MEL    N07 1193   0.713   0.845   2.275  0.0000  0.0000  0.0000
   80MEL    N08 1194   0.843   0.744   2.114  0.0000  0.0000  0.0000
   80MEL    H09 1195   0.993   0.547   1.910  0.0000  0.0000  0.0000
   80MEL    H0A 1196   1.014   0.720   1.935  0.0000  0.0000  0.0000
   80MEL    H0B 1197   0.640   0.335   2.101  0.0000  0.0000  0.0000
   80MEL    H0C 1198   0.550   0.409   2.225  0.0000  0.0000  0.0000
   80MEL    H0D 1199   0.759   0.931   2.252  0.0000  0.0000  0.0000
   80MEL    H0E 1200   0.626   0.848   2.329  0.0000  0.0000  0.0000
   81MEL    N00 1201   1.296   1.975  -0.047  0.0000  0.0000  0.0000
   81MEL    C01 1202   1.203   1.978   0.048  0.0000  0.0000  0.0000
   81MEL    N02 1203   1.136   2.095   0.066  0.0000  0.0000  0.0000
   81MEL    C03 1204   1.041   2.092   0.160  0.0000  0.0000  0.0000
   81MEL    N04 1205   0.977   2.210   0.185  0.0000  0.0000  0.0000
   81MEL    N05 1206   1.006   1.986   0.233  0.0000  0.0000  0.0000
   81MEL    C06 1207   1.079   1.875   0.208  0.0000  0.0000  0.0000
   81MEL    N07 1208   1.050   1.766   0.281  0.0000  0.0000  0.0000
   81MEL    N08 1209   1.180   1.866   0.120  0.0000  0.0000  0.0000
   81MEL    H09 1210   1.331   2.064  -0.084  0.0000  0.0000  0.0000
   81MEL    H0A 1211   1.352   1.891  -0.059  0.0000  0.0000  0.0000
   81MEL    H0B 1212   0.978   2.276   0.107  0.0000  0.0000  0.0000
   81MEL    H0C 1213   0.887   2.202   0.231  0.0000  0.0000  0.0000
   81MEL    H0D 1214   1.096   1.679   0.258  0.0000  0.0000  0.0000
   81MEL    H0E 1215   0.964   1.763   0.335  0.0000  0.0000  0.0000
   82MEL    N00 1216   0.790   1.009   0.047  0.0000  0.0000  0.0000
   82MEL    C01 1217   0.883   1.006  -0.048  0.0000  0.0000  0.0000
   82MEL    N02 1218   0.950   0.889  -0.066  0.0000  0.0000  0.0000
   82MEL    C03 1219   1.045   0.892  -0.160  0.0000  0.0000  0.0000
   82MEL    N04 1220   1.109   0.774  -0.185  0.0000  0.0000  0.0000
   82MEL    N05 1221   1.080   0.998  -0.233  0.0000  0.0000  0.0000
   82MEL    C06 1222   1.007   1.109  -0.208  0.0000  0.0000  0.0000
   82MEL    N07 1223   1.036   1.218  -0.281  0.0000  0.0000  0.0000
   82MEL    N08 1224   0.906   1.118  -0.120  0.0000  0.0000  0.0000
   82MEL    H09 1225   0.755   0.920   0.084  0.0000  0.0000  0.0000
   82MEL    H0A 1226   0.734   1.093   0.059  0.0000  0.0000  0.0000
   82MEL    H0B 1227   1.108   0.708  -0.107  0.0000  0.0000  0.0000
   82MEL    H0C 1228   1.199   0.782  -0.231  0.0000  0.0000  0.0000
   82MEL    H0D 1229   0.990   1.305  -0.258  0.0000  0.0000  0.0000
   82MEL    H0E 1230   1.122   1.221  -0.335  0.0000  0.0000  0.0000
   83MEL    N00 1231   1.311   2.348   0.047  0.0000  0.0000  0.0000
   83MEL    C01 1232   1.405   2.351  -0.048  0.0000  0.0000  0.0000
   83MEL    N02 1233   1.471   2.468  -0.066  0.0000  0.0000  0.0000
   83MEL    C03 1234   1.567   2.465  -0.160  0.0000  0.0000  0.0000
   83MEL    N04 1235   1.630   2.583  -0.185  0.0000  0.0000  0.0000
   83MEL    N05 1236   1.602   2.358  -0.233  0.0000  0.0000  0.0000
   83MEL    C06 1237   1.528   2.248  -0.208  0.0000  0.0000  0.0000
   83MEL    N07 1238   1.557   2.138  -0.281  0.0000  0.0000  0.0000
   83MEL    N08 1239   1.427   2.239  -0.120  0.0000  0.0000  0.0000
   83MEL    H09 1240   1.277   2.436   0.084  0.0000  0.0000  0.0000
   83MEL    H0A 1241   1.256   2.264   0.059  0.0000  0.0000  0.0000
   83MEL    H0B 1242   1.630   2.649  -0.107  0.0000  0.0000  0.0000
   83MEL    H0C 1243   1.720   2.575  -0.231  0.0000  0.0000  0.0000
   83MEL    H0D 1244   1.511   2.052  -0.258  0.0000  0.0000  0.0000
   83MEL    H0E 1245   1.644   2.135  -0.335  0.0000  0.0000  0.0000
   84MEL    N00 1246   1.818   1.382  -0.047  0.0000  0.0000  0.0000
   84MEL    C01 1247   1.724   1.378   0.048  0.0000  0.0000  0.0000
   84MEL    N02 1248   1.658   1.262   0.066  0.0000  0.0000  0.0000
   84MEL    C03 1249   1.563   1.264   0.160  0.0000  0.0000  0.0000
   84MEL    N04 1250   1.499   1.147   0.185  0.0000  0.0000  0.0000
   84MEL    N05 1251   1.528   1.371   0.233  0.0000  0.0000  0.0000
   84MEL    C06 1252   1.601   1.482   0.208  0.0000  0.0000  0.0000
   84MEL    N07 1253   1.572   1.591   0.281  0.0000  0.0000  0.0000
   84MEL    N08 1254   1.702   1.490   0.120  0.0000  0.0000  0.0000
   84MEL    H09 1255   1.852   1.293  -0.084  0.0000  0.0000  0.0000
   84MEL    H0A 1256   1.873   1.466  -0.059  0.0000  0.0000  0.0000
   84MEL    H0B 1257   1.499   1.081   0.107  0.0000  0.0000  0.0000
   84MEL    H0C 1258   1.409   1.155   0.231  0.0000  0.0000  0.0000
   84MEL    H0D 1259   1.618   1.677   0.258  0.0000  0.0000  0.0000
   84MEL    H0E 1260   1.485   1.594   0.335  0.0000  0.0000  0.0000
   85MEL    N00 1261   1.010   1.975   0.618  0.0000  0.0000  0.0000
   85MEL    C01 1262   0.917   1.978   0.713  0.0000  0.0000  0.0000
   85MEL    N02 1263   0.850   2.095   0.731  0.0000  0.0000  0.0000
   85MEL    C03 1264   0.755   2.092   0.825  0.0000  0.0000  0.0000
   85MEL    N04 1265   0.691   2.210   0.850  0.0000  0.0000  0.0000
   85MEL    N05 1266   0.720   1.986   0.898  0.0000  0.0000  0.0000
   85MEL    C06 1267   0.793   1.875   0.873  0.0000  0.0000  0.0000
   85MEL    N07 1268   0.764   1.766   0.946  0.0000  0.0000  0.0000
   85MEL    N08 1269   0.894   1.866   0.785  0.0000  0.0000  0.0000
   85MEL    H09 1270   1.045   2.064   0.581  0.0000  0.0000  0.0000
   85MEL    H0A 1271   1.066   1.891   0.606  0.0000  0.0000  0.0000
   85MEL    H0B 1272   0.692   2.276   0.772  0.0000  0.0000  0.0000
   85MEL    H0C 1273   0.601   2.202   0.896  0.0000  0.0000  0.0000
   85MEL    H0D 1274   0.810   1.679   0.923  0.0000  0.0000  0.0000
   85MEL    H0E 1275   0.678   1.763   1.000  0.0000  0.0000  0.0000
   86MEL    N00 1276   0.504   1.009   0.712  0.0000  0.0000  0.0000
   86MEL    C01 1277   0.597   1.006   0.617  0.0000  0.0000  0.0000
   86MEL    N02 1278   0.664   0.889   0.599  0.0000  0.0000  0.0000
   86MEL    C03 1279   0.759   0.892   0.505  0.0000  0.0000  0.0000
   86MEL    N04 1280   0.823   0.774   0.480  0.0000  0.0000  0.0000
   86MEL    N05 1281   0.794   0.998   0.432  0.0000  0.0000  0.0000
   86MEL    C06 1282   0.721   1.109   0.457  0.0000  0.0000  0.0000
   86MEL    N07 1283   0.750   1.218   0.384  0.0000  0.0000  0.0000
   86MEL    N08 1284   0.620   1.118   0.545  0.0000  0.0000  0.0000
   86MEL    H09 1285   0.469   0.920   0.749  0.0000  0.0000  0.0000
   86MEL    H0A 1286   0.448   1.093   0.724  0.0000  0.0000  0.0000
   86MEL    H0B 1287   0.822   0.708   0.558  0.0000  0.0000  0.0000
   86MEL    H0C 1288   0.913   0.782   0.434  0.0000  0.0000  0.0000
   86MEL    H0D 1289   0.704   1.305   0.407  0.0000  0.0000  0.0000
   86MEL    H0E 1290   0.836   1.221   0.330  0.0000  0.0000  0.0000
   87MEL    N00 1291   1.025   2.348   0.712  0.0000  0.0000  0.0000
   87MEL    C01 1292   1.119   2.351   0.617  0.0000  0.0000  0.0000
   87MEL    N02 1293   1.185   2.468   0.599  0.0000  0.0000  0.0000
   87MEL    C03 1294   1.281   2.465   0.505  0.0000  0.0000  0.0000
   87MEL    N04 1295   1.344   2.583   0.480  0.0000  0.0000  0.0000
   87MEL    N05 1296   1.316   2.358   0.432  0.0000  0.0000  0.0000
   87MEL    C06 1297   1.242   2.248   0.457  0.0000  0.0000  0.0000
   87MEL    N07 1298   1.271   2.138   0.384  0.0000  0.0000  0.0000
   87MEL    N08 1299   1.141   2.239   0.545  0.0000  0.0000  0.0000
   87MEL    H09 1300   0.991   2.436   0.749  0.0000  0.0000  0.0000
   87MEL    H0A 1301   0.970   2.264   0.724  0.0000  0.0000  0.0000
   87MEL    H0B 1302   1.344   2.649   0.558  0.0000  0.0000  0.0000
   87MEL    H0C 1303   1.434   2.575   0.434  0.0000  0.0000  0.0000
   87MEL    H0D 1304   1.225   2.052   0.407  0.0000  0.0000  0.0000
   87MEL    H0E 1305   1.358   2.135   0.330  0.0000  0.0000  0.0000
   88MEL    N00 1306   1.532   1.382   0.618  0.0000  0.0000  0.0000
   88MEL    C01 1307   1.438   1.378   0.713  0.0000  0.0000  0.0000
   88MEL    N02 1308   1.372   1.262   0.731  0.0000  0.0000  0.0000
   88MEL    C03 1309   1.277   1.264   0.825  0.0000  0.0000  0.0000
   88MEL    N04 1310   1.213   1.147   0.850  0.0000  0.0000  0.0000
   88MEL    N05 1311   1.242   1.371   0.898  0.0000  0.0000  0.0000
   88MEL    C06 1312   1.315   1.482   0.873  0.0000  0.0000  0.0000
   88MEL    N07 1313   1.286   1.591   0.946  0.0000  0.0000  0.0000
   88MEL    N08 1314   1.416   1.490   0.785  0.0000  0.0000  0.0000
   88MEL    H09 1315   1.566   1.293   0.581  0.0000  0.0000  0.0000
   88MEL    H0A 1316   1.587   1.466   0.606  0.0000  0.0000  0.0000
   88MEL    H0B 1317   1.213   1.081   0.772  0.0000  0.0000  0.0000
   88MEL    H0C 1318   1.123   1.155   0.896  0.0000  0.0000  0.0000
   88MEL    H0D 1319   1.332   1.677   0.923  0.0000  0.0000  0.0000
   88MEL    H0E 1320   1.199   1.594   1.000  0.0000  0.0000  0.0000
   89MEL    N00 1321   0.724   1.975   1.283  0.0000  0.0000  0.0000
   89MEL    C01 1322   0.631   1.978   1.378  0.0000  0.0000  0.0000
   89MEL    N02 1323   0.564   2.095   1.396  0.0000  0.0000  0.0000
   89MEL    C03 1324   0.469   2.092   1.490  0.0000  0.0000  0.0000
   89MEL    N04 1325   0.405   2.210   1.515  0.0000  0.0000  0.0000
   89MEL    N05 1326   0.434   1.986   1.563  0.0000  0.0000  0.0000
   89MEL    C06 1327   0.507   1.875   1.538  0.0000  0.0000  0.0000
   89MEL    N07 1328   0.478   1.766   1.611  0.0000  0.0000  0.0000
   89MEL    N08 1329   0.608   1.866   1.450  0.0000  0.0000  0.0000
   89MEL    H09 1330   0.759   2.064   1.246  0.0000  0.0000  0.0000
   89MEL    H0A 1331   0.780   1.891   1.271  0.0000  0.0000  0.0000
   89MEL    H0B 1332   0.406   2.276   1.437  0.0000  0.0000  0.0000
   89MEL    H0C 1333   0.315   2.202   1.561  0.0000  0.0000  0.0000
   89MEL    H0D 1334   0.524   1.679   1.588  0.0000  0.0000  0.0000
   89MEL    H0E 1335   0.392   1.763   1.665  0.0000  0.0000  0.0000
   90MEL    N00 1336   0.218   1.009   1.377  0.0000  0.0000  0.0000
   90MEL    C01 1337   0.311   1.006   1.282  0.0000  0.0000  0.0000
   90MEL    N02 1338   0.378   0.889   1.264  0.0000  0.0000  0.0000
   90MEL    C03 1339   0.473   0.892   1.170  0.0000  0.0000  0.0000
   90MEL    N04 1340   0.537   0.774   1.145  0.0000  0.0000  0.0000
   90MEL    N05 1341   0.508   0.998   1.097  0.0000  0.0000  0.0000
   90MEL    C06 1342   0.435   1.109   1.122  0.0000  0.0000  0.0000
   90MEL    N07 1343   0.464   1.218   1.049  0.0000  0.0000  0.0000
   90MEL    N08 1344   0.334   1.118   1.210  0.0000  0.0000  0.0000
   90MEL    H09 1345   0.183   0.920   1.414  0.0000  0.0000  0.0000
   90MEL    H0A 1346   0.162   1.093   1.389  0.0000  0.0000  0.0000
   90MEL    H0B 1347   0.536   0.708   1.223  0.0000  0.0000  0.0000
   90MEL    H0C 1348   0.627   0.782   1.099  0.0000  0.0000  0.0000
   90MEL    H0D 1349   0.418   1.305   1.072  0.0000  0.0000  0.0000
   90MEL    H0E 1350   0.550   1.221   0.995  0.0000  0.0000  0.0000
   91MEL    N00 1351   0.739   2.348   1.377  0.0000  0.0000  0.0000
   91MEL    C01 1352   0.833   2.351   1.282  0.0000  0.0000  0.0000
   91MEL    N02 1353   0.899   2.468   1.264  0.0000  0.0000  0.0000
   91MEL    C03 1354   0.995   2.465   1.170  0.0000  0.0000  0.0000
   91MEL    N04 1355   1.058   2.583   1.145  0.0000  0.0000  0.0000
   91MEL    N05 1356   1.030   2.358   1.097  0.0000  0.0000  0.0000
   91MEL    C06 1357   0.956   2.248   1.122  0.0000  0.0000  0.0000
   91MEL    N07 1358   0.985   2.138   1.049  0.0000  0.0000  0.0000
   91MEL    N08 1359   0.855   2.239   1.210  0.0000  0.0000  0.0000
   91MEL    H09 1360   0.705   2.436   1.414  0.0000  0.0000  0.0000
   91MEL    H0A 1361   0.684   2.264   1.389  0.0000  0.0000  0.0000
   91MEL    H0B 1362   1.058   2.649   1.223  0.0000  0.0000  0.0000
   91MEL    H0C 1363   1.148   2.575   1.099  0.0000  0.0000  0.0000
   91MEL    H0D 1364   0.939   2.052   1.072  0.0000  0.0000  0.0000
   91MEL    H0E 1365   1.072   2.135   0.995  0.0000  0.0000  0.0000
   92MEL    N00 1366   1.246   1.382   1.283  0.0000  0.0000  0.0000
   92MEL    C01 1367   1.152   1.378   1.378  0.0000  0.0000  0.0000
   92MEL    N02 1368   1.086   1.262   1.396  0.0000  0.0000  0.0000
   92MEL    C03 1369   0.991   1.264   1.490  0.0000  0.0000  0.0000
   92MEL    N04 1370   0.927   1.147   1.515  0.0000  0.0000  0.0000
   92MEL    N05 1371   0.956   1.371   1.563  0.0000  0.0000  0.0000
   92MEL    C06 1372   1.029   1.482   1.538  0.0000  0.0000  0.0000
   92MEL    N07 1373   1.000   1.591   1.611  0.0000  0.0000  0.0000
   92MEL    N08 1374   1.130   1.490   1.450  0.0000  0.0000  0.0000
   92MEL    H09 1375   1.280   1.293   1.246  0.0000  0.0000  0.0000
   92MEL    H0A 1376   1.301   1.466   1.271  0.0000  0.0000  0.0000
   92MEL    H0B 1377   0.927   1.081   1.437  0.0000  0.0000  0.0000
   92MEL    H0C 1378   0.837   1.155   1.561  0.0000  0.0000  0.0000
   92MEL    H0D 1379   1.046   1.677   1.588  0.0000  0.0000  0.0000
   92MEL    H0E 1380   0.913   1.594   1.665  0.0000  0.0000  0.0000
   93MEL    N00 1381   0.437   1.975   1.947  0.0000  0.0000  0.0000
   93MEL    C01 1382   0.344   1.978   2.042  0.0000  0.0000  0.0000
   93MEL    N02 1383   0.277   2.095   2.060  0.0000  0.0000  0.0000
   93MEL    C03 1384   0.182   2.092   2.154  0.0000  0.0000  0.0000
   93MEL    N04 1385   0.118   2.210   2.179  0.0000  0.0000  0.0000
   93MEL    N05 1386   0.147   1.986   2.227  0.0000  0.0000  0.0000
   93MEL    C06 1387   0.220   1.875   2.202  0.0000  0.0000  0.0000
   93MEL    N07 1388   0.191   1.766   2.275  0.0000  0.0000  0.0000
   93MEL    N08 1389   0.321   1.866   2.114  0.0000  0.0000  0.0000
   93MEL    H09 1390   0.472   2.064   1.910  0.0000  0.0000  0.0000
   93MEL    H0A 1391   0.493   1.891   1.935  0.0000  0.0000  0.0000
   93MEL    H0B 1392   0.119   2.276   2.101  0.0000  0.0000  0.0000
   93MEL    H0C 1393   0.028   2.202   2.225  0.0000  0.0000  0.0000
   93MEL    H0D 1394   0.237   1.679   2.252  0.0000  0.0000  0.0000
   93MEL    H0E 1395   0.105   1.763   2.329  0.0000  0.0000  0.0000
   94MEL    N00 1396  -0.069   1.009   2.041  0.0000  0.0000  0.0000
   94MEL    C01 1397   0.024   1.006   1.946  0.0000  0.0000  0.0000
   94MEL    N02 1398   0.091   0.889   1.928  0.0000  0.0000  0.0000
   94MEL    C03 1399   0.186   0.892   1.834  0.0000  0.0000  0.0000
   94MEL    N04 1400   0.250   0.774   1.809  0.0000  0.0000  0.0000
   94MEL    N05 1401   0.221   0.998   1.761  0.0000  0.0000  0.0000
   94MEL    C06 1402   0.148   1.109   1.786  0.0000  0.0000  0.0000
   94MEL    N07 1403   0.177   1.218   1.713  0.0000  0.0000  0.0000
   94MEL    N08 1404   0.047   1.118   1.874  0.0000  0.0000  0.0000
   94MEL    H09 1405  -0.104   0.920   2.078  0.0000  0.0000  0.0000
   94MEL    H0A 1406  -0.125   1.093   2.053  0.0000  0.0000  0.0000
   94MEL    H0B 1407   0.249   0.708   1.887  0.0000  0.0000  0.0000
   94MEL    H0C 1408   0.340   0.782   1.763  0.0000  0.0000  0.0000
   94MEL    H0D 1409   0.131   1.305   1.736  0.0000  0.0000  0.0000
   94MEL    H0E 1410   0.263   1.221   1.659  0.0000  0.0000  0.0000
   95MEL    N00 1411   0.452   2.348   2.041  0.0000  0.0000  0.0000
   95MEL    C01 1412   0.546   2.351   1.946  0.0000  0.0000  0.0000
   95MEL    N02 1413   0.612   2.468   1.928  0.0000  0.0000  0.0000
   95MEL    C03 1414   0.708   2.465   1.834  0.0000  0.0000  0.0000
   95MEL    N04 1415   0.771   2.583   1.809  0.0000  0.0000  0.0000
   95MEL    N05 1416   0.743   2.358   1.761  0.0000  0.0000  0.0000
   95MEL    C06 1417   0.669   2.248   1.786  0.0000  0.0000  0.0000
   95MEL    N07 1418   0.698   2.138   1.713  0.0000  0.0000  0.0000
   95MEL    N08 1419   0.568   2.239   1.874  0.0000  0.0000  0.0000
   95MEL    H09 1420   0.418   2.436   2.078  0.0000  0.0000  0.0000
   95MEL    H0A 1421   0.397   2.264   2.053  0.0000  0.0000  0.0000
   95MEL    H0B 1422   0.771   2.649   1.887  0.0000  0.0000  0.0000
   95MEL    H0C 1423   0.861   2.575   1.763  0.0000  0.0000  0.0000
   95MEL    H0D 1424   0.652   2.052   1.736  0.0000  0.0000  0.0000
   95MEL    H0E 1425   0.785   2.135   1.659  0.0000  0.0000  0.0000
   96MEL    N00 1426   0.959   1.382   1.947  0.0000  0.0000  0.0000
   96MEL    C01 1427   0.865   1.378   2.042  0.0000  0.0000  0.0000
   96MEL    N02 1428   0.799   1.262   2.060  0.0000  0.0000  0.0000
   96MEL    C03 1429   0.704   1.264   2.154  0.0000  0.0000  0.0000
   96MEL    N04 1430   0.640   1.147   2.179  0.0000  0.0000  0.0000
   96MEL    N05 1431   0.669   1.371   2.227  0.0000  0.0000  0.0000
   96MEL    C06 1432   0.742   1.482   2.202  0.0000  0.0000  0.0000
   96MEL    N07 1433   0.713   1.591   2.275  0.0000  0.0000  0.0000
   96MEL    N08 1434   0.843   1.490   2.114  0.0000  0.0000  0.0000
   96MEL    H09 1435   0.993   1.293   1.910  0.0000  0.0000  0.0000
   96MEL    H0A 1436   1.014   1.466   1.935  0.0000  0.0000  0.0000
   96MEL    H0B 1437   0.640   1.081   2.101  0.0000  0.0000  0.0000
   96MEL    H0C 1438   0.550   1.155   2.225  0.0000  0.0000  0.0000
   96MEL    H0D 1439   0.759   1.677   2.252  0.0000  0.0000  0.0000
   96MEL    H0E 1440   0.626   1.594   2.329  0.0000  0.0000  0.0000
   97MEL    N00 1441   2.340   0.483  -0.047  0.0000  0.0000  0.0000
   97MEL    C01 1442   2.247   0.486   0.048  0.0000  0.0000  0.0000
   97MEL    N02 1443   2.180   0.603   0.066  0.0000  0.0000  0.0000
   97MEL    C03 1444   2.085   0.600   0.160  0.0000  0.0000  0.0000
   97MEL    N04 1445   2.021   0.718   0.185  0.0000  0.0000  0.0000
   97MEL    N05 1446   2.050   0.494   0.233  0.0000  0.0000  0.0000
   97MEL    C06 1447   2.123   0.383   0.208  0.0000  0.0000  0.0000
   97MEL    N07 1448   2.094   0.274   0.281  0.0000  0.0000  0.0000
   97MEL    N08 1449   2.224   0.374   0.120  0.0000  0.0000  0.0000
   97MEL    H09 1450   2.375   0.572  -0.084  0.0000  0.0000  0.0000
   97MEL    H0A 1451   2.396   0.399  -0.059  0.0000  0.0000  0.0000
   97MEL    H0B 1452   2.022   0.784   0.107  0.0000  0.0000  0.0000
   97MEL    H0C 1453   1.931   0.710   0.231  0.0000  0.0000  0.0000
   97MEL    H0D 1454   2.140   0.187   0.258  0.0000  0.0000  0.0000
   97MEL    H0E 1455   2.008   0.271   0.335  0.0000  0.0000  0.0000
   98MEL    N00 1456   1.834  -0.483   0.047  0.0000  0.0000  0.0000
   98MEL    C01 1457   1.927  -0.486  -0.048  0.0000  0.0000  0.0000
   98MEL    N02 1458   1.994  -0.603  -0.066  0.0000  0.0000  0.0000
   98MEL    C03 1459   2.089  -0.600  -0.160  0.0000  0.0000  0.0000
   98MEL    N04 1460   2.153  -0.718  -0.185  0.0000  0.0000  0.0000
   98MEL    N05 1461   2.124  -0.494  -0.233  0.0000  0.0000  0.0000
   98MEL    C06 1462   2.051  -0.383  -0.208  0.0000  0.0000  0.0000
   98MEL    N07 1463   2.080  -0.274  -0.281  0.0000  0.0000  0.0000
   98MEL    N08 1464   1.950  -0.374  -0.120  0.0000  0.0000  0.0000
   98MEL    H09 1465   1.799  -0.572   0.084  0.0000  0.0000  0.0000
   98MEL    H0A 1466   1.778  -0.399   0.059  0.0000  0.0000  0.0000
   98MEL    H0B 1467   2.152  -0.784  -0.107  0.0000  0.0000  0.0000
   98MEL    H0C 1468   2.243  -0.710  -0.231  0.0000  0.0000  0.0000
   98MEL    H0D 1469   2.034  -0.187  -0.258  0.0000  0.0000  0.0000
   98MEL    H0E 1470   2.166  -0.271  -0.335  0.0000  0.0000  0.0000
   99MEL    N00 1471   2.355   0.856   0.047  0.0000  0.0000  0.0000
   99MEL    C01 1472   2.449   0.859  -0.048  0.0000  0.0000  0.0000
   99MEL    N02 1473   2.515   0.976  -0.066  0.0000  0.0000  0.0000
   99MEL    C03 1474   2.611   0.973  -0.160  0.0000  0.0000  0.0000
   99MEL    N04 1475   2.674   1.091  -0.185  0.0000  0.0000  0.0000
   99MEL    N05 1476   2.646   0.866  -0.233  0.0000  0.0000  0.0000
   99MEL    C06 1477   2.572   0.756  -0.208  0.0000  0.0000  0.0000
   99MEL    N07 1478   2.601   0.646  -0.281  0.0000  0.0000  0.0000
   99MEL    N08 1479   2.471   0.747  -0.120  0.0000  0.0000  0.0000
   99MEL    H09 1480   2.321   0.944   0.084  0.0000  0.0000  0.0000
   99MEL    H0A 1481   2.300   0.772   0.059  0.0000  0.0000  0.0000
   99MEL    H0B 1482   2.674   1.157  -0.107  0.0000  0.0000  0.0000
   99MEL    H0C 1483   2.764   1.083  -0.231  0.0000  0.0000  0.0000
   99MEL    H0D 1484   2.555   0.560  -0.258  0.0000  0.0000  0.0000
   99MEL    H0E 1485   2.688   0.643  -0.335  0.0000  0.0000  0.0000
  100MEL    N00 1486   2.862  -0.110  -0.047  0.0000  0.0000  0.0000
  100MEL    C01 1487   2.768  -0.114   0.048  0.0000  0.0000  0.0000
  100MEL    N02 1488   2.702  -0.230   0.066  0.0000  0.0000  0.0000
  100MEL    C03 1489   2.607  -0.228   0.160  0.0000  0.0000  0.0000
  100MEL    N04 1490   2.543  -0.345   0.185  0.0000  0.0000  0.0000
  100MEL    N05 1491   2.572  -0.121   0.233  0.0000  0.0000  0.0000
  100MEL    C06 1492   2.645  -0.010   0.208  0.0000  0.0000  0.0000
  100MEL    N07 1493   2.616   0.099   0.281  0.0000  0.0000  0.0000
  100MEL    N08 1494   2.746  -0.002   0.120  0.0000  0.0000  0.0000
  100MEL    H09 1495   2.896  -0.199  -0.084  0.0000  0.0000  0.0000
  100MEL    H0A 1496   2.917  -0.026  -0.059  0.0000  0.0000  0.0000
  100MEL    H0B 1497   2.543  -0.411   0.107  0.0000  0.0000  0.0000
  100MEL    H0C 1498   2.453  -0.337   0.231  0.0000  0.0000  0.0000
  100MEL    H0D 1499   2.662   0.185   0.258  0.0000  0.0000  0.0000
  100MEL    H0E 1500   2.529   0.102   0.335  0.0000  0.0000  0.0000
  101MEL    N00 1501   2.053   0.483   0.618  0.0000  0.0000  0.0000
  101MEL    C01 1502   1.960   0.486   0.713  0.0000  0.0000  0.0000
  101MEL    N02 1503   1.893   0.603   0.731  0.0000  0.0000  0.0000
  101MEL    C03 1504   1.798   0.600   0.825  0.0000  0.0000  0.0000
  101MEL    N04 1505   1.734   0.718   0.850  0.0000  0.0000  0.0000
  101MEL    N05 1506   1.763   0.494   0.898  0.0000  0.0000  0.0000
  101MEL    C06 1507   1.836   0.383   0.873  0.0000  0.0000  0.0000
  101MEL    N07 1508   1.807   0.274   0.946  0.0000  0.0000  0.0000
  101MEL    N08 1509   1.937   0.374   0.785  0.0000  0.0000  0.0000
  101MEL    H09 1510   2.088   0.572   0.581  0.0000  0.0000  0.0000
  101MEL    H0A 1511   2.109   0.399   0.606  0.0000  0.0000  0.0000
  101MEL    H0B 1512   1.735   0.784   0.772  0.0000  0.0000  0.0000
  101MEL    H0C 1513   1.644   0.710   0.896  0.0000  0.0000  0.0000
  101MEL    H0D 1514   1.853   0.187   0.923  0.0000  0.0000  0.0000
  101MEL    H0E 1515   1.721   0.271   1.000  0.0000  0.0000  0.0000
  102MEL    N00 1516   1.547  -0.483   0.712  0.0000  0.0000  0.0000
  102MEL    C01 1517   1.640  -0.486   0.617  0.0000  0.0000  0.0000
  102MEL    N02 1518   1.707  -0.603   0.599  0.0000  0.0000  0.0000
  102MEL    C03 1519   1.802  -0.600   0.505  0.0000  0.0000  0.0000
  102MEL    N04 1520   1.866  -0.718   0.480  0.0000  0.0000  0.0000
  102MEL    N05 1521   1.837  -0.494   0.432  0.0000  0.0000  0.0000
  102MEL    C06 1522   1.764  -0.383   0.457  0.0000  0.0000  0.0000
  102MEL    N07 1523   1.793  -0.274   0.384  0.0000  0.0000  0.0000
  102MEL    N08 1524   1.663  -0.374   0.545  0.0000  0.0000  0.0000
  102MEL    H09 1525   1.512  -0.572   0.749  0.0000  0.0000  0.0000
  102MEL    H0A 1526   1.491  -0.399   0.724  0.0000  0.0000  0.0000
  102MEL    H0B 1527   1.865  -0.784   0.558  0.0000  0.0000  0.0000
  102MEL    H0C 1528   1.956  -0.710   0.434  0.0000  0.0000  0.0000
  102MEL    H0D 1529   1.747  -0.187   0.407  0.0000  0.0000  0.0000
  102MEL    H0E 1530   1.879  -0.271   0.330  0.0000  0.0000  0.0000
  103MEL    N00 1531   2.068   0.856   0.712  0.0000  0.0000  0.0000
  103MEL    C01 1532   2.162   0.859   0.617  0.0000  0.0000  0.0000
  103MEL    N02 1533   2.228   0.976   0.599  0.0000  0.0000  0.0000
  103MEL    C03 1534   2.324   0.973   0.505  0.0000  0.0000  0.0000
  103MEL    N04 1535   2.387   1.091   0.480  0.0000  0.0000  0.0000
  103MEL    N05 1536   2.359   0.866   0.432  0.0000  0.0000  0.0000
  103MEL    C06 1537   2.285   0.756   0.457  0.0000  0.0000  0.0000
  103MEL    N07 1538   2.314   0.646   0.384  0.0000  0.0000  0.0000
  103MEL    N08 1539   2.184   0.747   0.545  0.0000  0.0000  0.0000
  103MEL    H09 1540   2.034   0.944   0.749  0.0000  0.0000  0.0000
  103MEL    H0A 1541   2.013   0.772   0.724  0.0000  0.0000  0.0000
  103MEL    H0B 1542   2.387   1.157   0.558  0.0000  0.0000  0.0000
  103MEL    H0C 1543   2.477   1.083   0.434  0.0000  0.0000  0.0000
  103MEL    H0D 1544   2.268   0.560   0.407  0.0000  0.0000  0.0000
  103MEL    H0E 1545   2.401   0.643   0.330  0.0000  0.0000  0.0000
  104MEL    N00 1546   2.575  -0.110   0.618  0.0000  0.0000  0.0000
  104MEL    C01 1547   2.481  -0.114   0.713  0.0000  0.0000  0.0000
  104MEL    N02 1548   2.415  -0.230   0.731  0.0000  0.0000  0.0000
  104MEL    C03 1549   2.320  -0.228   0.825  0.0000  0.0000  0.0000
  104MEL    N04 1550   2.256  -0.345   0.850  0.0000  0.0000  0.0000
  104MEL    N05 1551   2.285  -0.121   0.898  0.0000  0.0000  0.0000
  104MEL    C06 1552   2.358  -0.010   0.873  0.0000  0.0000  0.0000
  104MEL    N07 1553   2.329   0.099   0.946  0.0000  0.0000  0.0000
  104MEL    N08 1554   2.459  -0.002   0.785  0.0000  0.0000  0.0000
  104MEL    H09 1555   2.609  -0.199   0.581  0.0000  0.0000  0.0000
  104MEL    H0A 1556   2.630  -0.026   0.606  0.0000  0.0000  0.0000
  104MEL    H0B 1557   2.256  -0.411   0.772  0.0000  0.0000  0.0000
  104MEL    H0C 1558   2.166  -0.337   0.896  0.0000  0.0000  0.0000
  104MEL    H0D 1559   2.375   0.185   0.923  0.0000  0.0000  0.0000
  104MEL    H0E 1560   2.242   0.102   1.000  0.0000  0.0000  0.0000
  105MEL    N00 1561   1.767   0.483   1.283  0.0000  0.0000  0.0000
  105MEL    C01 1562   1.674   0.486   1.378  0.0000  0.0000  0.0000
  105MEL    N02 1563   1.607   0.603   1.396  0.0000  0.0000  0.0000
  105MEL    C03 1564   1.512   0.600   1.490  0.0000  0.0000  0.0000
  105MEL    N04 1565   1.448   0.718   1.515  0.0000  0.0000  0.0000
  105MEL    N05 1566   1.477   0.494   1.563  0.0000  0.0000  0.0000
  105MEL    C06 1567   1.550   0.383   1.538  0.0000  0.0000  0.0000
  105MEL    N07 1568   1.521   0.274   1.611  0.0000  0.0000  0.0000
  105MEL    N08 1569   1.651   0.374   1.450  0.0000  0.0000  0.0000
  105MEL    H09 1570   1.802   0.572   1.246  0.0000  0.0000  0.0000
  105MEL    H0A 1571   1.823   0.399   1.271  0.0000  0.0000  0.0000
  105MEL    H0B 1572   1.449   0.784   1.437  0.0000  0.0000  0.0000
  105MEL    H0C 1573   1.358   0.710   1.561  0.0000  0.0000  0.0000
  105MEL    H0D 1574   1.567   0.187   1.588  0.0000  0.0000  0.0000
  105MEL    H0E 1575   1.435   0.271   1.665  0.0000  0.0000  0.0000
  106MEL    N00 1576   1.261  -0.483   1.377  0.0000  0.0000  0.0000
  106MEL    C01 1577   1.354  -0.486   1.282  0.0000  0.0000  0.0000
  106MEL    N02 1578   1.421  -0.603   1.264  0.0000  0.0000  0.0000
  106MEL    C03 1579   1.516  -0.600   1.170  0.0000  0.0000  0.0000
  106MEL    N04 1580   1.580  -0.718   1.145  0.0000  0.0000  0.0000
  106MEL    N05 1581   1.551  -0.494   1.097  0.0000  0.0000  0.0000
  106MEL    C06 1582   1.478  -0.383   1.122  0.0000  0.0000  0.0000
  106MEL    N07 1583   1.507  -0.274   1.049  0.0000  0.0000  0.0000
  106MEL    N08 1584   1.377  -0.374   1.210  0.0000  0.0000  0.0000
  106MEL    H09 1585   1.226  -0.572   1.414  0.0000  0.0000  0.0000
  106MEL    H0A 1586   1.205  -0.399   1.389  0.0000  0.0000  0.0000
  106MEL    H0B 1587   1.579  -0.784   1.223  0.0000  0.0000  0.0000
  106MEL    H0C 1588   1.670  -0.710   1.099  0.0000  0.0000  0.0000
  106MEL    H0D 1589   1.461  -0.187   1.072  0.0000  0.0000  0.0000
  106MEL    H0E 1590   1.593  -0.271   0.995  0.0000  0.0000  0.0000
  107MEL    N00 1591   1.782   0.856   1.377  0.0000  0.0000  0.0000
  107MEL    C01 1592   1.876   0.859   1.282  0.0000  0.0000  0.0000
  107MEL    N02 1593   1.942   0.976   1.264  0.0000  0.0000  0.0000
  107MEL    C03 1594   2.038   0.973   1.170  0.0000  0.0000  0.0000
  107MEL    N04 1595   2.101   1.091   1.145  0.0000  0.0000  0.0000
  107MEL    N05 1596   2.073   0.866   1.097  0.0000  0.0000  0.0000
  107MEL    C06 1597   1.999   0.756   1.122  0.0000  0.0000  0.0000
  107MEL    N07 1598   2.028   0.646   1.049  0.0000  0.0000  0.0000
  107MEL    N08 1599   1.898   0.747   1.210  0.0000  0.0000  0.0000
  107MEL    H09 1600   1.748   0.944   1.414  0.0000  0.0000  0.0000
  107MEL    H0A 1601   1.727   0.772   1.389  0.0000  0.0000  0.0000
  107MEL    H0B 1602   2.101   1.157   1.223  0.0000  0.0000  0.0000
  107MEL    H0C 1603   2.191   1.083   1.099  0.0000  0.0000  0.0000
  107MEL    H0D 1604   1.982   0.560   1.072  0.0000  0.0000  0.0000
  107MEL    H0E 1605   2.115   0.643   0.995  0.0000  0.0000  0.0000
  108MEL    N00 1606   2.289  -0.110   1.283  0.0000  0.0000  0.0000
  108MEL    C01 1607   2.195  -0.114   1.378  0.0000  0.0000  0.0000
  108MEL    N02 1608   2.129  -0.230   1.396  0.0000  0.0000  0.0000
  108MEL    C03 1609   2.034  -0.228   1.490  0.0000  0.0000  0.0000
  108MEL    N04 1610   1.970  -0.345   1.515  0.0000  0.0000  0.0000
  108MEL    N05 1611   1.999  -0.121   1.563  0.0000  0.0000  0.0000
  108MEL    C06 1612   2.072  -0.010   1.538  0.0000  0.0000  0.0000
  108MEL    N07 1613   2.043   0.099   1.611  0.0000  0.0000  0.0000
  108MEL    N08 1614   2.173  -0.002   1.450  0.0000  0.0000  0.0000
  108MEL    H09 1615   2.323  -0.199   1.246  0.0000  0.0000  0.0000
  108MEL    H0A 1616   2.344  -0.026   1.271  0.0000  0.0000  0.0000
  108MEL    H0B 1617   1.970  -0.411   1.437  0.0000  0.0000  0.0000
  108MEL    H0C 1618   1.880  -0.337   1.561  0.0000  0.0000  0.0000
  108MEL    H0D 1619   2.089   0.185   1.588  0.0000  0.0000  0.0000
  108MEL    H0E 1620   1.956   0.102   1.665  0.0000  0.0000  0.0000
  109MEL    N00 1621   1.481   0.483   1.947  0.0000  0.0000  0.0000
  109MEL    C01 1622   1.388   0.486   2.042  0.0000  0.0000  0.0000
  109MEL    N02 1623   1.321   0.603   2.060  0.0000  0.0000  0.0000
  109MEL    C03 1624   1.226   0.600   2.154  0.0000  0.0000  0.0000
  109MEL    N04 1625   1.162   0.718   2.179  0.0000  0.0000  0.0000
  109MEL    N05 1626   1.191   0.494   2.227  0.0000  0.0000  0.0000
  109MEL    C06 1627   1.264   0.383   2.202  0.0000  0.0000  0.0000
  109MEL    N07 1628   1.235   0.274   2.275  0.0000  0.0000  0.0000
  109MEL    N08 1629   1.365   0.374   2.114  0.0000  0.0000  0.0000
  109MEL    H09 1630   1.516   0.572   1.910  0.0000  0.0000  0.0000
  109MEL    H0A 1631   1.537   0.399   1.935  0.0000  0.0000  0.0000
  109MEL    H0B 1632   1.163   0.784   2.101  0.0000  0.0000  0.0000
  109MEL    H0C 1633   1.072   0.710   2.225  0.0000  0.0000  0.0000
  109MEL    H0D 1634   1.281   0.187   2.252  0.0000  0.0000  0.0000
  109MEL    H0E 1635   1.149   0.271   2.329  0.0000  0.0000  0.0000
  110MEL    N00 1636   0.975  -0.483   2.041  0.0000  0.0000  0.0000
  110MEL    C01 1637   1.068  -0.486   1.946  0.0000  0.0000  0.0000
  110MEL    N02 1638   1.135  -0.603   1.928  0.0000  0.0000  0.0000
  110MEL    C03 1639   1.230  -0.600   1.834  0.0000  0.0000  0.0000
  110MEL    N04 1640   1.294  -0.718   1.809  0.0000  0.0000  0.0000
  110MEL    N05 1641   1.265  -0.494   1.761  0.0000  0.0000  0.0000
  110MEL    C06 1642   1.192  -0.383   1.786  0.0000  0.0000  0.0000
  110MEL    N07 1643   1.221  -0.274   1.713  0.0000  0.0000  0.0000
  110MEL    N08 1644   1.091  -0.374   1.874  0.0000  0.0000  0.0000
  110MEL    H09 1645   0.940  -0.572   2.078  0.0000  0.0000  0.0000
  110MEL    H0A 1646   0.919  -0.399   2.053  0.0000  0.0000  0.0000
  110MEL    H0B 1647   1.293  -0.784   1.887  0.0000  0.0000  0.0000
  110MEL    H0C 1648   1.384  -0.710   1.763  0.0000  0.0000  0.0000
  110MEL    H0D 1649   1.175  -0.187   1.736  0.0000  0.0000  0.0000
  110MEL    H0E 1650   1.307  -0.271   1.659  0.0000  0.0000  0.0000
  111MEL    N00 1651   1.496   0.856   2.041  0.0000  0.0000  0.0000
  111MEL    C01 1652   1.590   0.859   1.946  0.0000  0.0000  0.0000
  111MEL    N02 1653   1.656   0.976   1.928  0.0000  0.0000  0.0000
  111MEL    C03 1654   1.752   0.973   1.834  0.0000  0.0000  0.0000
  111MEL    N04 1655   1.815   1.091   1.809  0.0000  0.0000  0.0000
  111MEL    N05 1656   1.787   0.866   1.761  0.0000  0.0000  0.0000
  111MEL    C06 1657   1.713   0.756   1.786  0.0000  0.0000  0.0000
  111MEL    N07 1658   1.742   0.646   1.713  0.0000  0.0000  0.0000
  111MEL    N08 1659   1.612   0.747   1.874  0.0000  0.0000  0.0000
  111MEL    H09 1660   1.462   0.944   2.078  0.0000  0.0000  0.0000
  111MEL    H0A 1661   1.441   0.772   2.053  0.0000  0.0000  0.0000
  111MEL    H0B 1662   1.815   1.157   1.887  0.0000  0.0000  0.0000
  111MEL    H0C 1663   1.905   1.083   1.763  0.0000  0.0000  0.0000
  111MEL    H0D 1664   1.696   0.560   1.736  0.0000  0.0000  0.0000
  111MEL    H0E 1665   1.829   0.643   1.659  0.0000  0.0000  0.0000
  112MEL    N00 1666   2.003  -0.110   1.947  0.0000  0.0000  0.0000
  112MEL    C01 1667   1.909  -0.114   2.042  0.0000  0.0000  0.0000
  112MEL    N02 1668   1.843  -0.230   2.060  0.0000  0.0000  0.0000
  112MEL    C03 1669   1.748  -0.228   2.154  0.0000  0.0000  0.0000
  112MEL    N04 1670   1.684  -0.345   2.179  0.0000  0.0000  0.0000
  112MEL    N05 1671   1.713  -0.121   2.227  0.0000  0.0000  0.0000
  112MEL    C06 1672   1.786  -0.010   2.202  0.0000  0.0000  0.0000
  112MEL    N07 1673   1.757   0.099   2.275  0.0000  0.0000  0.0000
  112MEL    N08 1674   1.887  -0.002   2.114  0.0000  0.0000  0.0000
  112MEL    H09 1675   2.037  -0.199   1.910  0.0000  0.0000  0.0000
  112MEL    H0A 1676   2.058  -0.026   1.935  0.0000  0.0000  0.0000
  112MEL    H0B 1677   1.684  -0.411   2.101  0.0000  0.0000  0.0000
  112MEL    H0C 1678   1.594  -0.337   2.225  0.0000  0.0000  0.0000
  112MEL    H0D 1679   1.803   0.185   2.252  0.0000  0.0000  0.0000
  112MEL    H0E 1680   1.670   0.102   2.329  0.0000  0.0000  0.0000
  113MEL    N00 1681   2.340   1.229  -0.047  0.0000  0.0000  0.0000
  113MEL    C01 1682   2.247   1.232   0.048  0.0000  0.0000  0.0000
  113MEL    N02 1683   2.180   1.349   0.066  0.0000  0.0000  0.0000
  113MEL    C03 1684   2.085   1.346   0.160  0.0000  0.0000  0.0000
  113MEL    N04 1685   2.021   1.464   0.185  0.0000  0.0000  0.0000
  113MEL    N05 1686   2.050   1.240   0.233  0.0000  0.0000  0.0000
  113MEL    C06 1687   2.123   1.129   0.208  0.0000  0.0000  0.0000
  113MEL    N07 1688   2.094   1.020   0.281  0.0000  0.0000  0.0000
  113MEL    N08 1689   2.224   1.120   0.120  0.0000  0.0000  0.0000
  113MEL    H09 1690   2.375   1.318  -0.084  0.0000  0.0000  0.0000
  113MEL    H0A 1691   2.396   1.145  -0.059  0.0000  0.0000  0.0000
  113MEL    H0B 1692   2.022   1.530   0.107  0.0000  0.0000  0.0000
  113MEL    H0C 1693   1.931   1.456   0.231  0.0000  0.0000  0.0000
  113MEL    H0D 1694   2.140   0.933   0.258  0.0000  0.0000  0.0000
  113MEL    H0E 1695   2.008   1.017   0.335  0.0000  0.0000  0.0000
  114MEL    N00 1696   1.834   0.263   0.047  0.0000  0.0000  0.0000
  114MEL    C01 1697   1.927   0.260  -0.048  0.0000  0.0000  0.0000
  114MEL    N02 1698   1.994   0.143  -0.066  0.0000  0.0000  0.0000
  114MEL    C03 1699   2.089   0.146  -0.160  0.0000  0.0000  0.0000
  114MEL    N04 1700   2.153   0.028  -0.185  0.0000  0.0000  0.0000
  114MEL    N05 1701   2.124   0.252  -0.233  0.0000  0.0000  0.0000
  114MEL    C06 1702   2.051   0.363  -0.208  0.0000  0.0000  0.0000
  114MEL    N07 1703   2.080   0.472  -0.281  0.0000  0.0000  0.0000
  114MEL    N08 1704   1.950   0.372  -0.120  0.0000  0.0000  0.0000
  114MEL    H09 1705   1.799   0.174   0.084  0.0000  0.0000  0.0000
  114MEL    H0A 1706   1.778   0.347   0.059  0.0000  0.0000  0.0000
  114MEL    H0B 1707   2.152  -0.038  -0.107  0.0000  0.0000  0.0000
  114MEL    H0C 1708   2.243   0.036  -0.231  0.0000  0.0000  0.0000
  114MEL    H0D 1709   2.034   0.559  -0.258  0.0000  0.0000  0.0000
  114MEL    H0E 1710   2.166   0.475  -0.335  0.0000  0.0000  0.0000
  115MEL    N00 1711   2.355   1.602   0.047  0.0000  0.0000  0.0000
  115MEL    C01 1712   2.449   1.605  -0.048  0.0000  0.0000  0.0000
  115MEL    N02 1713   2.515   1.722  -0.066  0.0000  0.0000  0.0000
  115MEL    C03 1714   2.611   1.719  -0.160  0.0000  0.0000  0.0000
  115MEL    N04 1715   2.674   1.837  -0.185  0.0000  0.0000  0.0000
  115MEL    N05 1716   2.646   1.612  -0.233  0.0000  0.0000  0.0000
  115MEL    C06 1717   2.572   1.502  -0.208  0.0000  0.0000  0.0000
  115MEL    N07 1718   2.601   1.392  -0.281  0.0000  0.0000  0.0000
  115MEL    N08 1719   2.471   1.493  -0.120  0.0000  0.0000  0.0000
  115MEL    H09 1720   2.321   1.690   0.084  0.0000  0.0000  0.0000
  115MEL    H0A 1721   2.300   1.518   0.059  0.0000  0.0000  0.0000
  115MEL    H0B 1722   2.674   1.903  -0.107  0.0000  0.0000  0.0000
  115MEL    H0C 1723   2.764   1.829  -0.231  0.0000  0.0000  0.0000
  115MEL    H0D 1724   2.555   1.306  -0.258  0.0000  0.0000  0.0000
  115MEL    H0E 1725   2.688   1.389  -0.335  0.0000  0.0000  0.0000
  116MEL    N00 1726   2.862   0.636  -0.047  0.0000  0.0000  0.0000
  116MEL    C01 1727   2.768   0.632   0.048  0.0000  0.0000  0.0000
  116MEL    N02 1728   2.702   0.516   0.066  0.0000  0.0000  0.0000
  116MEL    C03 1729   2.607   0.518   0.160  0.0000  0.0000  0.0000
  116MEL    N04 1730   2.543   0.401   0.185  0.0000  0.0000  0.0000
  116MEL    N05 1731   2.572   0.625   0.233  0.0000  0.0000  0.0000
  116MEL    C06 1732   2.645   0.736   0.208  0.0000  0.0000  0.0000
  116MEL    N07 1733   2.616   0.845   0.281  0.0000  0.0000  0.0000
  116MEL    N08 1734   2.746   0.744   0.120  0.0000  0.0000  0.0000
  116MEL    H09 1735   2.896   0.547  -0.084  0.0000  0.0000  0.0000
  116MEL    H0A 1736   2.917   0.720  -0.059  0.0000  0.0000  0.0000
  116MEL    H0B 1737   2.543   0.335   0.107  0.0000  0.0000  0.0000
  116MEL    H0C 1738   2.453   0.409   0.231  0.0000  0.0000  0.0000
  116MEL    H0D 1739   2.662   0.931   0.258  0.0000  0.0000  0.0000
  116MEL    H0E 1740   2.529   0.848   0.335  0.0000  0.0000  0.0000
  117MEL    N00 1741   2.053   1.229   0.618  0.0000  0.0000  0.0000
  117MEL    C01 1742   1.960   1.232   0.713  0.0000  0.0000  0.0000
  117MEL    N02 1743   1.893   1.349   0.731  0.0000  0.0000  0.0000
  117MEL    C03 1744   1.798   1.346   0.825  0.0000  0.0000  0.0000
  117MEL    N04 1745   1.734   1.464   0.850  0.0000  0.0000  0.0000
  117MEL    N05 1746   1.763   1.240   0.898  0.0000  0.0000  0.0000
  117MEL    C06 1747   1.836   1.129   0.873  0.0000  0.0000  0.0000
  117MEL    N07 1748   1.807   1.020   0.946  0.0000  0.0000  0.0000
  117MEL    N08 1749   1.937   1.120   0.785  0.0000  0.0000  0.0000
  117MEL    H09 1750   2.088   1.318   0.581  0.0000  0.0000  0.0000
  117MEL    H0A 1751   2.109   1.145   0.606  0.0000  0.0000  0.0000
  117MEL    H0B 1752   1.735   1.530   0.772  0.0000  0.0000  0.0000
  117MEL    H0C 1753   1.644   1.456   0.896  0.0000  0.0000  0.0000
  117MEL    H0D 1754   1.853   0.933   0.923  0.0000  0.0000  0.0000
  117MEL    H0E 1755   1.721   1.017   1.000  0.0000  0.0000  0.0000
  118MEL    N00 1756   1.547   0.263   0.712  0.0000  0.0000  0.0000
  118MEL    C01 1757   1.640   0.260   0.617  0.0000  0.0000  0.0000
  118MEL    N02 1758   1.707   0.143   0.599  0.0000  0.0000  0.0000
  118MEL    C03 1759   1.802   0.146   0.505  0.0000  0.0000  0.0000
  118MEL    N04 1760   1.866   0.028   0.480  0.0000  0.0000  0.0000
  118MEL    N05 1761   1.837   0.252   0.432  0.0000  0.0000  0.0000
  118MEL    C06 1762   1.764   0.363   0.457  0.0000  0.0000  0.0000
  118MEL    N07 1763   1.793   0.472   0.384  0.0000  0.0000  0.0000
  118MEL    N08 1764   1.663   0.372   0.545  0.0000  0.0000  0.0000
  118MEL    H09 1765   1.512   0.174   0.749  0.0000  0.0000  0.0000
  118MEL    H0A 1766   1.491   0.347   0.724  0.0000  0.0000  0.0000
  118MEL    H0B 1767   1.865  -0.038   0.558  0.0000  0.0000  0.0000
  118MEL    H0C 1768   1.956   0.036   0.434  0.0000  0.0000  0.0000
  118MEL    H0D 1769   1.747   0.559   0.407  0.0000  0.0000  0.0000
  118MEL    H0E 1770   1.879   0.475   0.330  0.0000  0.0000  0.0000
  119MEL    N00 1771   2.068   1.602   0.712  0.0000  0.0000  0.0000
  119MEL    C01 1772   2.162   1.605   0.617  0.0000  0.0000  0.0000
  119MEL    N02 1773   2.228   1.722   0.599  0.0000  0.0000  0.0000
  119MEL    C03 1774   2.324   1.719   0.505  0.0000  0.0000  0.0000
  119MEL    N04 1775   2.387   1.837   0.480  0.0000  0.0000  0.0000
  119MEL    N05 1776   2.359   1.612   0.432  0.0000  0.0000  0.0000
  119MEL    C06 1777   2.285   1.502   0.457  0.0000  0.0000  0.0000
  119MEL    N07 1778   2.314   1.392   0.384  0.0000  0.0000  0.0000
  119MEL    N08 1779   2.184   1.493   0.545  0.0000  0.0000  0.0000
  119MEL    H09 1780   2.034   1.690   0.749  0.0000  0.0000  0.0000
  119MEL    H0A 1781   2.013   1.518   0.724  0.0000  0.0000  0.0000
  119MEL    H0B 1782   2.387   1.903   0.558  0.0000  0.0000  0.0000
  119MEL    H0C 1783   2.477   1.829   0.434  0.0000  0.0000  0.0000
  119MEL    H0D 1784   2.268   1.306   0.407  0.0000  0.0000  0.0000
  119MEL    H0E 1785   2.401   1.389   0.330  0.0000  0.0000  0.0000
  120MEL    N00 1786   2.575   0.636   0.618  0.0000  0.0000  0.0000
  120MEL    C01 1787   2.481   0.632   0.713  0.0000  0.0000  0.0000
  120MEL    N02 1788   2.415   0.516   0.731  0.0000  0.0000  0.0000
  120MEL    C03 1789   2.320   0.518   0.825  0.0000  0.0000  0.0000
  120MEL    N04 1790   2.256   0.401   0.850  0.0000  0.0000  0.0000
  120MEL    N05 1791   2.285   0.625   0.898  0.0000  0.0000  0.0000
  120MEL    C06 1792   2.358   0.736   0.873  0.0000  0.0000  0.0000
  120MEL    N07 1793   2.329   0.845   0.946  0.0000  0.0000  0.0000
  120MEL    N08 1794   2.459   0.744   0.785  0.0000  0.0000  0.0000
  120MEL    H09 1795   2.609   0.547   0.581  0.0000  0.0000  0.0000
  120MEL    H0A 1796   2.630   0.720   0.606  0.0000  0.0000  0.0000
  120MEL    H0B 1797   2.256   0.335   0.772  0.0000  0.0000  0.0000
  120MEL    H0C 1798   2.166   0.409   0.896  0.0000  0.0000  0.0000
  120MEL    H0D 1799   2.375   0.931   0.923  0.0000  0.0000  0.0000
  120MEL    H0E 1800   2.242   0.848   1.000  0.0000  0.0000  0.0000
  121MEL    N00 1801   1.767   1.229   1.283  0.0000  0.0000  0.0000
  121MEL    C01 1802   1.674   1.232   1.378  0.0000  0.0000  0.0000
  121MEL    N02 1803   1.607   1.349   1.396  0.0000  0.0000  0.0000
  121MEL    C03 1804   1.512   1.346   1.490  0.0000  0.0000  0.0000
  121MEL    N04 1805   1.448   1.464   1.515  0.0000  0.0000  0.0000
  121MEL    N05 1806   1.477   1.240   1.563  0.0000  0.0000  0.0000
  121MEL    C06 1807   1.550   1.129   1.538  0.0000  0.0000  0.0000
  121MEL    N07 1808   1.521   1.020   1.611  0.0000  0.0000  0.0000
  121MEL    N08 1809   1.651   1.120   1.450  0.0000  0.0000  0.0000
  121MEL    H09 1810   1.802   1.318   1.246  0.0000  0.0000  0.0000
  121MEL    H0A 1811   1.823   1.145   1.271  0.0000  0.0000  0.0000
  121MEL    H0B 1812   1.449   1.530   1.437  0.0000  0.0000  0.0000
  121MEL    H0C 1813   1.358   1.456   1.561  0.0000  0.0000  0.0000
  121MEL    H0D 1814   1.567   0.933   1.588  0.0000  0.0000  0.0000
  121MEL    H0E 1815   1.435   1.017   1.665  0.0000  0.0000  0.0000
  122MEL    N00 1816   1.261   0.263   1.377  0.0000  0.0000  0.0000
  122MEL    C01 1817   1.354   0.260   1.282  0.0000  0.0000  0.0000
  122MEL    N02 1818   1.421   0.143   1.264  0.0000  0.0000  0.0000
  122MEL    C03 1819   1.516   0.146   1.170  0.0000  0.0000  0.0000
  122MEL    N04 1820   1.580   0.028   1.145  0.0000  0.0000  0.0000
  122MEL    N05 1821   1.551   0.252   1.097  0.0000  0.0000  0.0000
  122MEL    C06 1822   1.478   0.363   1.122  0.0000  0.0000  0.0000
  122MEL    N07 1823   1.507   0.472   1.049  0.0000  0.0000  0.0000
  122MEL    N08 1824   1.377   0.372   1.210  0.0000  0.0000  0.0000
  122MEL    H09 1825   1.226   0.174   1.414  0.0000  0.0000  0.0000
  122MEL    H0A 1826   1.205   0.347   1.389  0.0000  0.0000  0.0000
  122MEL    H0B 1827   1.579  -0.038   1.223  0.0000  0.0000  0.0000
  122MEL    H0C 1828   1.670   0.036   1.099  0.0000  0.0000  0.0000
  122MEL    H0D 1829   1.461   0.559   1.072  0.0000  0.0000  0.0000
  122MEL    H0E 1830   1.593   0.475   0.995  0.0000  0.0000  0.0000
  123MEL    N00 1831   1.782   1.602   1.377  0.0000  0.0000  0.0000
  123MEL    C01 1832   1.876   1.605   1.282  0.0000  0.0000  0.0000
  123MEL    N02 1833   1.942   1.722   1.264  0.0000  0.0000  0.0000
  123MEL    C03 1834   2.038   1.719   1.170  0.0000  0.0000  0.0000
  123MEL    N04 1835   2.101   1.837   1.145  0.0000  0.0000  0.0000
  123MEL    N05 1836   2.073   1.612   1.097  0.0000  0.0000  0.0000
  123MEL    C06 1837   1.999   1.502   1.122  0.0000  0.0000  0.0000
  123MEL    N07 1838   2.028   1.392   1.049  0.0000  0.0000  0.0000
  123MEL    N08 1839   1.898   1.493   1.210  0.0000  0.0000  0.0000
  123MEL    H09 1840   1.748   1.690   1.414  0.0000  0.0000  0.0000
  123MEL    H0A 1841   1.727   1.518   1.389  0.0000  0.0000  0.0000
  123MEL    H0B 1842   2.101   1.903   1.223  0.0000  0.0000  0.0000
  123MEL    H0C 1843   2.191   1.829   1.099  0.0000  0.0000  0.0000
  123MEL    H0D 1844   1.982   1.306   1.072  0.0000  0.0000  0.0000
  123MEL    H0E 1845   2.115   1.389   0.995  0.0000  0.0000  0.0000
  124MEL    N00 1846   2.289   0.636   1.283  0.0000  0.0000  0.0000
  124MEL    C01 1847   2.195   0.632   1.378  0.0000  0.0000  0.0000
  124MEL    N02 1848   2.129   0.516   1.396  0.0000  0.0000  0.0000
  124MEL    C03 1849   2.034   0.518   1.490  0.0000  0.0000  0.0000
  124MEL    N04 1850   1.970   0.401   1.515  0.0000  0.0000  0.0000
  124MEL    N05 1851   1.999   0.625   1.563  0.0000  0.0000  0.0000
  124MEL    C06 1852   2.072   0.736   1.538  0.0000  0.0000  0.0000
  124MEL    N07 1853   2.043   0.845   1.611  0.0000  0.0000  0.0000
  124MEL    N08 1854   2.173   0.744   1.450  0.0000  0.0000  0.0000
  124MEL    H09 1855   2.323   0.547   1.246  0.0000  0.0000  0.0000
  124MEL    H0A 1856   2.344   0.720   1.271  0.0000  0.0000  0.0000
  124MEL    H0B 1857   1.970   0.335   1.437  0.0000  0.0000  0.0000
  124MEL    H0C 1858   1.880   0.409   1.561  0.0000  0.0000  0.0000
  124MEL    H0D 1859   2.089   0.931   1.588  0.0000  0.0000  0.0000
  124MEL    H0E 1860   1.956   0.848   1.665  0.0000  0.0000  0.0000
  125MEL    N00 1861   1.481   1.229   1.947  0.0000  0.0000  0.0000
  125MEL    C01 1862   1.388   1.232   2.042  0.0000  0.0000  0.0000
  125MEL    N02 1863   1.321   1.349   2.060  0.0000  0.0000  0.0000
  125MEL    C03 1864   1.226   1.346   2.154  0.0000  0.0000  0.0000
  125MEL    N04 1865   1.162   1.464   2.179  0.0000  0.0000  0.0000
  125MEL    N05 1866   1.191   1.240   2.227  0.0000  0.0000  0.0000
  125MEL    C06 1867   1.264   1.129   2.202  0.0000  0.0000  0.0000
  125MEL    N07 1868   1.235   1.020   2.275  0.0000  0.0000  0.0000
  125MEL    N08 1869   1.365   1.120   2.114  0.0000  0.0000  0.0000
  125MEL    H09 1870   1.516   1.318   1.910  0.0000  0.0000  0.0000
  125MEL    H0A 1871   1.537   1.145   1.935  0.0000  0.0000  0.0000
  125MEL    H0B 1872   1.163   1.530   2.101  0.0000  0.0000  0.0000
  125MEL    H0C 1873   1.072   1.456   2.225  0.0000  0.0000  0.0000
  125MEL    H0D 1874   1.281   0.933   2.252  0.0000  0.0000  0.0000
  125MEL    H0E 1875   1.149   1.017   2.329  0.0000  0.0000  0.0000
  126MEL    N00 1876   0.975   0.263   2.041  0.0000  0.0000  0.0000
  126MEL    C01 1877   1.068   0.260   1.946  0.0000  0.0000  0.0000
  126MEL    N02 1878   1.135   0.143   1.928  0.0000  0.0000  0.0000
  126MEL    C03 1879   1.230   0.146   1.834  0.0000  0.0000  0.0000
  126MEL    N04 1880   1.294   0.028   1.809  0.0000  0.0000  0.0000
  126MEL    N05 1881   1.265   0.252   1.761  0.0000  0.0000  0.0000
  126MEL    C06 1882   1.192   0.363   1.786  0.0000  0.0000  0.0000
  126MEL    N07 1883   1.221   0.472   1.713  0.0000  0.0000  0.0000
  126MEL    N08 1884   1.091   0.372   1.874  0.0000  0.0000  0.0000
  126MEL    H09 1885   0.940   0.174   2.078  0.0000  0.0000  0.0000
  126MEL    H0A 1886   0.919   0.347   2.053  0.0000  0.0000  0.0000
  126MEL    H0B 1887   1.293  -0.038   1.887  0.0000  0.0000  0.0000
  126MEL    H0C 1888   1.384   0.036   1.763  0.0000  0.0000  0.0000
  126MEL    H0D 1889   1.175   0.559   1.736  0.0000  0.0000  0.0000
  126MEL    H0E 1890   1.307   0.475   1.659  0.0000  0.0000  0.0000
  127MEL    N00 1891   1.496   1.602   2.041  0.0000  0.0000  0.0000
  127MEL    C01 1892   1.590   1.605   1.946  0.0000  0.0000  0.0000
  127MEL    N02 1893   1.656   1.722   1.928  0.0000  0.0000  0.0000
  127MEL    C03 1894   1.752   1.719   1.834  0.0000  0.0000  0.0000
  127MEL    N04 1895   1.815   1.837   1.809  0.0000  0.0000  0.0000
  127MEL    N05 1896   1.787   1.612   1.761  0.0000  0.0000  0.0000
  127MEL    C06 1897   1.713   1.502   1.786  0.0000  0.0000  0.0000
  127MEL    N07 1898   1.742   1.392   1.713  0.0000  0.0000  0.0000
  127MEL    N08 1899   1.612   1.493   1.874  0.0000  0.0000  0.0000
  127MEL    H09 1900   1.462   1.690   2.078  0.0000  0.0000  0.0000
  127MEL    H0A 1901   1.441   1.518   2.053  0.0000  0.0000  0.0000
  127MEL    H0B 1902   1.815   1.903   1.887  0.0000  0.0000  0.0000
  127MEL    H0C 1903   1.905   1.829   1.763  0.0000  0.0000  0.0000
  127MEL    H0D 1904   1.696   1.306   1.736  0.0000  0.0000  0.0000
  127MEL    H0E 1905   1.829   1.389   1.659  0.0000  0.0000  0.0000
  128MEL    N00 1906   2.003   0.636   1.947  0.0000  0.0000  0.0000
  128MEL    C01 1907   1.909   0.632   2.042  0.0000  0.0000  0.0000
  128MEL    N02 1908   1.843   0.516   2.060  0.0000  0.0000  0.0000
  128MEL    C03 1909   1.748   0.518   2.154  0.0000  0.0000  0.0000
  128MEL    N04 1910   1.684   0.401   2.179  0.0000  0.0000  0.0000
  128MEL    N05 1911   1.713   0.625   2.227  0.0000  0.0000  0.0000
  128MEL    C06 1912   1.786   0.736   2.202  0.0000  0.0000  0.0000
  128MEL    N07 1913   1.757   0.845   2.275  0.0000  0.0000  0.0000
  128MEL    N08 1914   1.887   0.744   2.114  0.0000  0.0000  0.0000
  128MEL    H09 1915   2.037   0.547   1.910  0.0000  0.0000  0.0000
  128MEL    H0A 1916   2.058   0.720   1.935  0.0000  0.0000  0.0000
  128MEL    H0B 1917   1.684   0.335   2.101  0.0000  0.0000  0.0000
  128MEL    H0C 1918   1.594   0.409   2.225  0.0000  0.0000  0.0000
  128MEL    H0D 1919   1.803   0.931   2.252  0.0000  0.0000  0.0000
  128MEL    H0E 1920   1.670   0.848   2.329  0.0000  0.0000  0.0000
  129MEL    N00 1921   2.340   1.975  -0.047  0.0000  0.0000  0.0000
  129MEL    C01 1922   2.247   1.978   0.048  0.0000  0.0000  0.0000
  129MEL    N02 1923   2.180   2.095   0.066  0.0000  0.0000  0.0000
  129MEL    C03 1924   2.085   2.092   0.160  0.0000  0.0000  0.0000
  129MEL    N04 1925   2.021   2.210   0.185  0.0000  0.0000  0.0000
  129MEL    N05 1926   2.050   1.986   0.233  0.0000  0.0000  0.0000
  129MEL    C06 1927   2.123   1.875   0.208  0.0000  0.0000  0.0000
  129MEL    N07 1928   2.094   1.766   0.281  0.0000  0.0000  0.0000
  129MEL    N08 1929   2.224   1.866   0.120  0.0000  0.0000  0.0000
  129MEL    H09 1930   2.375   2.064  -0.084  0.0000  0.0000  0.0000
  129MEL    H0A 1931   2.396   1.891  -0.059  0.0000  0.0000  0.0000
  129MEL    H0B 1932   2.022   2.276   0.107  0.0000  0.0000  0.0000
  129MEL    H0C 1933   1.931   2.202   0.231  0.0000  0.0000  0.0000
  129MEL    H0D 1934   2.140   1.679   0.258  0.0000  0.0000  0.0000
  129MEL    H0E 1935   2.008   1.763   0.335  0.0000  0.0000  0.0000
  130MEL    N00 1936   1.834   1.009   0.047  0.0000  0.0000  0.0000
  130MEL    C01 1937   1.927   1.006  -0.048  0.0000  0.0000  0.0000
  130MEL    N02 1938   1.994   0.889  -0.066  0.0000  0.0000  0.0000
  130MEL    C03 1939   2.089   0.892  -0.160  0.0000  0.0000  0.0000
  130MEL    N04 1940   2.153   0.774  -0.185  0.0000  0.0000  0.0000
  130MEL    N05 1941   2.124   0.998  -0.233  0.0000  0.0000  0.0000
  130MEL    C06 1942   2.051   1.109  -0.208  0.0000  0.0000  0.0000
  130MEL    N07 1943   2.080   1.218  -0.281  0.0000  0.0000  0.0000
  130MEL    N08 1944   1.950   1.118  -0.120  0.0000  0.0000  0.0000
  130MEL    H09 1945   1.799   0.920   0.084  0.0000  0.0000  0.0000
  130MEL    H0A 1946   1.778   1.093   0.059  0.0000  0.0000  0.0000
  130MEL    H0B 1947   2.152   0.708  -0.107  0.0000  0.0000  0.0000
  130MEL    H0C 1948   2.243   0.782  -0.231  0.0000  0.0000  0.0000
  130MEL    H0D 1949   2.034   1.305  -0.258  0.0000  0.0000  0.0000
  130MEL    H0E 1950   2.166   1.221  -0.335  0.0000  0.0000  0.0000
  131MEL    N00 1951   2.355   2.348   0.047  0.0000  0.0000  0.0000
  131MEL    C01 1952   2.449   2.351  -0.048  0.0000  0.0000  0.0000
  131MEL    N02 1953   2.515   2.468  -0.066  0.0000  0.0000  0.0000
  131MEL    C03 1954   2.611   2.465  -0.160  0.0000  0.0000  0.0000
  131MEL    N04 1955   2.674   2.583  -0.185  0.0000  0.0000  0.0000
  131MEL    N05 1956   2.646   2.358  -0.233  0.0000  0.0000  0.0000
  131MEL    C06 1957   2.572   2.248  -0.208  0.0000  0.0000  0.0000
  131MEL    N07 1958   2.601   2.138  -0.281  0.0000  0.0000  0.0000
  131MEL    N08 1959   2.471   2.239  -0.120  0.0000  0.0000  0.0000
  131MEL    H09 1960   2.321   2.436   0.084  0.0000  0.0000  0.0000
  131MEL    H0A 1961   2.300   2.264   0.059  0.0000  0.0000  0.0000
  131MEL    H0B 1962   2.674   2.649  -0.107  0.0000  0.0000  0.0000
  131MEL    H0C 1963   2.764   2.575  -0.231  0.0000  0.0000  0.0000
  131MEL    H0D 1964   2.555   2.052  -0.258  0.0000  0.0000  0.0000
  131MEL    H0E 1965   2.688   2.135  -0.335  0.0000  0.0000  0.0000
  132MEL    N00 1966   2.862   1.382  -0.047  0.0000  0.0000  0.0000
  132MEL    C01 1967   2.768   1.378   0.048  0.0000  0.0000  0.0000
  132MEL    N02 1968   2.702   1.262   0.066  0.0000  0.0000  0.0000
  132MEL    C03 1969   2.607   1.264   0.160  0.0000  0.0000  0.0000
  132MEL    N04 1970   2.543   1.147   0.185  0.0000  0.0000  0.0000
  132MEL    N05 1971   2.572   1.371   0.233  0.0000  0.0000  0.0000
  132MEL    C06 1972   2.645   1.482   0.208  0.0000  0.0000  0.0000
  132MEL    N07 1973   2.616   1.591   0.281  0.0000  0.0000  0.0000
  132MEL    N08 1974   2.746   1.490   0.120  0.0000  0.0000  0.0000
  132MEL    H09 1975   2.896   1.293  -0.084  0.0000  0.0000  0.0000
  132MEL    H0A 1976   2.917   1.466  -0.059  0.0000  0.0000  0.0000
  132MEL    H0B 1977   2.543   1.081   0.107  0.0000  0.0000  0.0000
  132MEL    H0C 1978   2.453   1.155   0.231  0.0000  0.0000  0.0000
  132MEL    H0D 1979   2.662   1.677   0.258  0.0000  0.0000  0.0000
  132MEL    H0E 1980   2.529   1.594   0.335  0.0000  0.0000  0.0000
  133MEL    N00 1981   2.053   1.975   0.618  0.0000  0.0000  0.0000
  133MEL    C01 1982   1.960   1.978   0.713  0.0000  0.0000  0.0000
  133MEL    N02 1983   1.893   2.095   0.731  0.0000  0.0000  0.0000
  133MEL    C03 1984   1.798   2.092   0.825  0.0000  0.0000  0.0000
  133MEL    N04 1985   1.734   2.210   0.850  0.0000  0.0000  0.0000
  133MEL    N05 1986   1.763   1.986   0.898  0.0000  0.0000  0.0000
  133MEL    C06 1987   1.836   1.875   0.873  0.0000  0.0000  0.0000
  133MEL    N07 1988   1.807   1.766   0.946  0.0000  0.0000  0.0000
  133MEL    N08 1989   1.937   1.866   0.785  0.0000  0.0000  0.0000
  133MEL    H09 1990   2.088   2.064   0.581  0.0000  0.0000  0.0000
  133MEL    H0A 1991   2.109   1.891   0.606  0.0000  0.0000  0.0000
  133MEL    H0B 1992   1.735   2.276   0.772  0.0000  0.0000  0.0000
  133MEL    H0C 1993   1.644   2.202   0.896  0.0000  0.0000  0.0000
  133MEL    H0D 1994   1.853   1.679   0.923  0.0000  0.0000  0.0000
  133MEL    H0E 1995   1.721   1.763   1.000  0.0000  0.0000  0.0000
  134MEL    N00 1996   1.547   1.009   0.712  0.0000  0.0000  0.0000
  134MEL    C01 1997   1.640   1.006   0.617  0.0000  0.0000  0.0000
  134MEL    N02 1998   1.707   0.889   0.599  0.0000  0.0000  0.0000
  134MEL    C03 1999   1.802   0.892   0.505  0.0000  0.0000  0.0000
  134MEL    N04 2000   1.866   0.774   0.480  0.0000  0.0000  0.0000
  134MEL    N05 2001   1.837   0.998   0.432  0.0000  0.0000  0.0000
  134MEL    C06 2002   1.764   1.109   0.457  0.0000  0.0000  0.0000
  134MEL    N07 2003   1.793   1.218   0.384  0.0000  0.0000  0.0000
  134MEL    N08 2004   1.663   1.118   0.545  0.0000  0.0000  0.0000
  134MEL    H09 2005   1.512   0.920   0.749  0.0000  0.0000  0.0000
  134MEL    H0A 2006   1.491   1.093   0.724  0.0000  0.0000  0.0000
  134MEL    H0B 2007   1.865   0.708   0.558  0.0000  0.0000  0.0000
  134MEL    H0C 2008   1.956   0.782   0.434  0.0000  0.0000  0.0000
  134MEL    H0D 2009   1.747   1.305   0.407  0.0000  0.0000  0.0000
  134MEL    H0E 2010   1.879   1.221   0.330  0.0000  0.0000  0.0000
  135MEL    N00 2011   2.068   2.348   0.712  0.0000  0.0000  0.0000
  135MEL    C01 2012   2.162   2.351   0.617  0.0000  0.0000  0.0000
  135MEL    N02 2013   2.228   2.468   0.599  0.0000  0.0000  0.0000
  135MEL    C03 2014   2.324   2.465   0.505  0.0000  0.0000  0.0000
  135MEL    N04 2015   2.387   2.583   0.480  0.0000  0.0000  0.0000
  135MEL    N05 2016   2.359   2.358   0.432  0.0000  0.0000  0.0000
  135MEL    C06 2017   2.285   2.248   0.457  0.0000  0.0000  0.0000
  135MEL    N07 2018   2.314   2.138   0.384  0.0000  0.0000  0.0000
  135MEL    N08 2019   2.184   2.239   0.545  0.0000  0.0000  0.0000
  135MEL    H09 2020   2.034   2.436   0.749  0.0000  0.0000  0.0000
  135MEL    H0A 2021   2.013   2.264   0.724  0.0000  0.0000  0.0000
  135MEL    H0B 2022   2.387   2.649   0.558  0.0000  0.0000  0.0000
  135MEL    H0C 2023   2.477   2.575   0.434  0.0000  0.0000  0.0000
  135MEL    H0D 2024   2.268   2.052   0.407  0.0000  0.0000  0.0000
  135MEL    H0E 2025   2.401   2.135   0.330  0.0000  0.0000  0.0000
  136MEL    N00 2026   2.575   1.382   0.618  0.0000  0.0000  0.0000
  136MEL    C01 2027   2.481   1.378   0.713  0.0000  0.0000  0.0000
  136MEL    N02 2028   2.415   1.262   0.731  0.0000  0.0000  0.0000
  136MEL    C03 2029   2.320   1.264   0.825  0.0000  0.0000  0.0000
  136MEL    N04 2030   2.256   1.147   0.850  0.0000  0.0000  0.0000
  136MEL    N05 2031   2.285   1.371   0.898  0.0000  0.0000  0.0000
  136MEL    C06 2032   2.358   1.482   0.873  0.0000  0.0000  0.0000
  136MEL    N07 2033   2.329   1.591   0.946  0.0000  0.0000  0.0000
  136MEL    N08 2034   2.459   1.490   0.785  0.0000  0.0000  0.0000
  136MEL    H09 2035   2.609   1.293   0.581  0.0000  0.0000  0.0000
  136MEL    H0A 2036   2.630   1.466   0.606  0.0000  0.0000  0.0000
  136MEL    H0B 2037   2.256   1.081   0.772  0.0000  0.0000  0.0000
  136MEL    H0C 2038   2.166   1.155   0.896  0.0000  0.0000  0.0000
  136MEL    H0D 2039   2.375   1.677   0.923  0.0000  0.0000  0.0000
  136MEL    H0E 2040   2.242   1.594   1.000  0.0000  0.0000  0.0000
  137MEL    N00 2041   1.767   1.975   1.283  0.0000  0.0000  0.0000
  137MEL    C01 2042   1.674   1.978   1.378  0.0000  0.0000  0.0000
  137MEL    N02 2043   1.607   2.095   1.396  0.0000  0.0000  0.0000
  137MEL    C03 2044   1.512   2.092   1.490  0.0000  0.0000  0.0000
  137MEL    N04 2045   1.448   2.210   1.515  0.0000  0.0000  0.0000
  137MEL    N05 2046   1.477   1.986   1.563  0.0000  0.0000  0.0000
  137MEL    C06 2047   1.550   1.875   1.538  0.0000  0.0000  0.0000
  137MEL    N07 2048   1.521   1.766   1.611  0.0000  0.0000  0.0000
  137MEL    N08 2049   1.651   1.866   1.450  0.0000  0.0000  0.0000
  137MEL    H09 2050   1.802   2.064   1.246  0.0000  0.0000  0.0000
  137MEL    H0A 2051   1.823   1.891   1.271  0.0000  0.0000  0.0000
  137MEL    H0B 2052   1.449   2.276   1.437  0.0000  0.0000  0.0000
  137MEL    H0C 2053   1.358   2.202   1.561  0.0000  0.0000  0.0000
  137MEL    H0D 2054   1.567   1.679   1.588  0.0000  0.0000  0.0000
  137MEL    H0E 2055   1.435   1.763   1.665  0.0000  0.0000  0.0000
  138MEL    N00 2056   1.261   1.009   1.377  0.0000  0.0000  0.0000
  138MEL    C01 2057   1.354   1.006   1.282  0.0000  0.0000  0.0000
  138MEL    N02 2058   1.421   0.889   1.264  0.0000  0.0000  0.0000
  138MEL    C03 2059   1.516   0.892   1.170  0.0000  0.0000  0.0000
  138MEL    N04 2060   1.580   0.774   1.145  0.0000  0.0000  0.0000
  138MEL    N05 2061   1.551   0.998   1.097  0.0000  0.0000  0.0000
  138MEL    C06 2062   1.478   1.109   1.122  0.0000  0.0000  0.0000
  138MEL    N07 2063   1.507   1.218   1.049  0.0000  0.0000  0.0000
  138MEL    N08 2064   1.377   1.118   1.210  0.0000  0.0000  0.0000
  138MEL    H09 2065   1.226   0.920   1.414  0.0000  0.0000  0.0000
  138MEL    H0A 2066   1.205   1.093   1.389  0.0000  0.0000  0.0000
  138MEL    H0B 2067   1.579   0.708   1.223  0.0000  0.0000  0.0000
  138MEL    H0C 2068   1.670   0.782   1.099  0.0000  0.0000  0.0000
  138MEL    H0D 2069   1.461   1.305   1.072  0.0000  0.0000  0.0000
  138MEL    H0E 2070   1.593   1.221   0.995  0.0000  0.0000  0.0000
  139MEL    N00 2071   1.782   2.348   1.377  0.0000  0.0000  0.0000
  139MEL    C01 2072   1.876   2.351   1.282  0.0000  0.0000  0.0000
  139MEL    N02 2073   1.942   2.468   1.264  0.0000  0.0000  0.0000
  139MEL    C03 2074   2.038   2.465   1.170  0.0000  0.0000  0.0000
  139MEL    N04 2075   2.101   2.583   1.145  0.0000  0.0000  0.0000
  139MEL    N05 2076   2.073   2.358   1.097  0.0000  0.0000  0.0000
  139MEL    C06 2077   1.999   2.248   1.122  0.0000  0.0000  0.0000
  139MEL    N07 2078   2.028   2.138   1.049  0.0000  0.0000  0.0000
  139MEL    N08 2079   1.898   2.239   1.210  0.0000  0.0000  0.0000
  139MEL    H09 2080   1.748   2.436   1.414  0.0000  0.0000  0.0000
  139MEL    H0A 2081   1.727   2.264   1.389  0.0000  0.0000  0.0000
  139MEL    H0B 2082   2.101   2.649   1.223  0.0000  0.0000  0.0000
  139MEL    H0C 2083   2.191   2.575   1.099  0.0000  0.0000  0.0000
  139MEL    H0D 2084   1.982   2.052   1.072  0.0000  0.0000  0.0000
  139MEL    H0E 2085   2.115   2.135   0.995  0.0000  0.0000  0.0000
  140MEL    N00 2086   2.289   1.382   1.283  0.0000  0.0000  0.0000
  140MEL    C01 2087   2.195   1.378   1.378  0.0000  0.0000  0.0000
  140MEL    N02 2088   2.129   1.262   1.396  0.0000  0.0000  0.0000
  140MEL    C03 2089   2.034   1.264   1.490  0.0000  0.0000  0.0000
  140MEL    N04 2090   1.970   1.147   1.515  0.0000  0.0000  0.0000
  140MEL    N05 2091   1.999   1.371   1.563  0.0000  0.0000  0.0000
  140MEL    C06 2092   2.072   1.482   1.538  0.0000  0.0000  0.0000
  140MEL    N07 2093   2.043   1.591   1.611  0.0000  0.0000  0.0000
  140MEL    N08 2094   2.173   1.490   1.450  0.0000  0.0000  0.0000
  140MEL    H09 2095   2.323   1.293   1.246  0.0000  0.0000  0.0000
  140MEL    H0A 2096   2.344   1.466   1.271  0.0000  0.0000  0.0000
  140MEL    H0B 2097   1.970   1.081   1.437  0.0000  0.0000  0.0000
  140MEL    H0C 2098   1.880   1.155   1.561  0.0000  0.0000  0.0000
  140MEL    H0D 2099   2.089   1.677   1.588  0.0000  0.0000  0.0000
  140MEL    H0E 2100   1.956   1.594   1.665  0.0000  0.0000  0.0000
  141MEL    N00 2101   1.481   1.975   1.947  0.0000  0.0000  0.0000
  141MEL    C01 2102   1.388   1.978   2.042  0.0000  0.0000  0.0000
  141MEL    N02 2103   1.321   2.095   2.060  0.0000  0.0000  0.0000
  141MEL    C03 2104   1.226   2.092   2.154  0.0000  0.0000  0.0000
  141MEL    N04 2105   1.162   2.210   2.179  0.0000  0.0000  0.0000
  141MEL    N05 2106   1.191   1.986   2.227  0.0000  0.0000  0.0000
  141MEL    C06 2107   1.264   1.875   2.202  0.0000  0.0000  0.0000
  141MEL    N07 2108   1.235   1.766   2.275  0.0000  0.0000  0.0000
  141MEL    N08 2109   1.365   1.866   2.114  0.0000  0.0000  0.0000
  141MEL    H09 2110   1.516   2.064   1.910  0.0000  0.0000  0.0000
  141MEL    H0A 2111   1.537   1.891   1.935  0.0000  0.0000  0.0000
  141MEL    H0B 2112   1.163   2.276   2.101  0.0000  0.0000  0.0000
  141MEL    H0C 2113   1.072   2.202   2.225  0.0000  0.0000  0.0000
  141MEL    H0D 2114   1.281   1.679   2.252  0.0000  0.0000  0.0000
  141MEL    H0E 2115   1.149   1.763   2.329  0.0000  0.0000  0.0000
  142MEL    N00 2116   0.975   1.009   2.041  0.0000  0.0000  0.0000
  142MEL    C01 2117   1.068   1.006   1.946  0.0000  0.0000  0.0000
  142MEL    N02 2118   1.135   0.889   1.928  0.0000  0.0000  0.0000
  142MEL    C03 2119   1.230   0.892   1.834  0.0000  0.0000  0.0000
  142MEL    N04 2120   1.294   0.774   1.809  0.0000  0.0000  0.0000
  142MEL    N05 2121   1.265   0.998   1.761  0.0000  0.0000  0.0000
  142MEL    C06 2122   1.192   1.109   1.786  0.0000  0.0000  0.0000
  142MEL    N07 2123   1.221   1.218   1.713  0.0000  0.0000  0.0000
  142MEL    N08 2124   1.091   1.118   1.874  0.0000  0.0000  0.0000
  142MEL    H09 2125   0.940   0.920   2.078  0.0000  0.0000  0.0000
  142MEL    H0A 2126   0.919   1.093   2.053  0.0000  0.0000  0.0000
  142MEL    H0B 2127   1.293   0.708   1.887  0.0000  0.0000  0.0000
  142MEL    H0C 2128   1.384   0.782   1.763  0.0000  0.0000  0.0000
  142MEL    H0D 2129   1.175   1.305   1.736  0.0000  0.0000  0.0000
  142MEL    H0E 2130   1.307   1.221   1.659  0.0000  0.0000  0.0000
  143MEL    N00 2131   1.496   2.348   2.041  0.0000  0.0000  0.0000
  143MEL    C01 2132   1.590   2.351   1.946  0.0000  0.0000  0.0000
  143MEL    N02 2133   1.656   2.468   1.928  0.0000  0.0000  0.0000
  143MEL    C03 2134   1.752   2.465   1.834  0.0000  0.0000  0.0000
  143MEL    N04 2135   1.815   2.583   1.809  0.0000  0.0000  0.0000
  143MEL    N05 2136   1.787   2.358   1.761  0.0000  0.0000  0.0000
  143MEL    C06 2137   1.713   2.248   1.786  0.0000  0.0000  0.0000
  143MEL    N07 2138   1.742   2.138   1.713  0.0000  0.0000  0.0000
  143MEL    N08 2139   1.612   2.239   1.874  0.0000  0.0000  0.0000
  143MEL    H09 2140   1.462   2.436   2.078  0.0000  0.0000  0.0000
  143MEL    H0A 2141   1.441   2.264   2.053  0.0000  0.0000  0.0000
  143MEL    H0B 2142   1.815   2.649   1.887  0.0000  0.0000  0.0000
  143MEL    H0C 2143   1.905   2.575   1.763  0.0000  0.0000  0.0000
  143MEL    H0D 2144   1.696   2.052   1.736  0.0000  0.0000  0.0000
  143MEL    H0E 2145   1.829   2.135   1.659  0.0000  0.0000  0.0000
  144MEL    N00 2146   2.003   1.382   1.947  0.0000  0.0000  0.0000
  144MEL    C01 2147   1.909   1.378   2.042  0.0000  0.0000  0.0000
  144MEL    N02 2148   1.843   1.262   2.060  0.0000  0.0000  0.0000
  144MEL    C03 2149   1.748   1.264   2.154  0.0000  0.0000  0.0000
  144MEL    N04 2150   1.684   1.147   2.179  0.0000  0.0000  0.0000
  144MEL    N05 2151   1.713   1.371   2.227  0.0000  0.0000  0.0000
  144MEL    C06 2152   1.786   1.482   2.202  0.0000  0.0000  0.0000
  144MEL    N07 2153   1.757   1.591   2.275  0.0000  0.0000  0.0000
  144MEL    N08 2154   1.887   1.490   2.114  0.0000  0.0000  0.0000
  144MEL    H09 2155   2.037   1.293   1.910  0.0000  0.0000  0.0000
  144MEL    H0A 2156   2.058   1.466   1.935  0.0000  0.0000  0.0000
  144MEL    H0B 2157   1.684   1.081   2.101  0.0000  0.0000  0.0000
  144MEL    H0C 2158   1.594   1.155   2.225  0.0000  0.0000  0.0000
  144MEL    H0D 2159   1.803   1.677   2.252  0.0000  0.0000  0.0000
  144MEL    H0E 2160   1.670   1.594   2.329  0.0000  0.0000  0.0000
   3.12990   2.23740   2.65908   0.00000   0.00000   0.00000   0.00000  -1.14520   0.00000
