Melamine crystal (COD 2205105 supercell)
 2160
    1MEL    N00    1   2.266   0.492   2.645
    1MEL    C01    2   2.167   0.495   2.737
    1MEL    N02    3   2.102   0.614   2.752
    1MEL    C03    4   2.001   0.612   2.844
    1MEL    N04    5   1.931   0.726   2.858
    1MEL    N05    6   1.964   0.505   2.919
    1MEL    C06    7   2.036   0.392   2.896
    1MEL    N07    8   2.004   0.282   2.967
    1MEL    N08    9   2.142   0.381   2.810
    1MEL    H09   10   2.296   0.580   2.601
    1MEL    H0A   11   2.316   0.403   2.629
    1MEL    H0B   12   1.947   0.803   2.791
    1MEL    H0C   13   1.845   0.723   2.913
    1MEL    H0D   14   2.061   0.197   2.957
    1MEL    H0E   15   1.921   0.283   3.030
    2MEL    N00   16   2.899   1.768   0.039
    2MEL    C01   17   2.998   1.765  -0.053
    2MEL    N02   18   3.062   1.645  -0.068
    2MEL    C03   19   3.162   1.648  -0.160
    2MEL    N04   20   3.233   1.534  -0.174
    2MEL    N05   21   3.201   1.755  -0.234
    2MEL    C06   22   3.127   1.868  -0.211
    2MEL    N07   23   3.160   1.978  -0.283
    2MEL    N08   24   3.022   1.878  -0.125
    2MEL    H09   25   2.868   1.680   0.084
    2MEL    H0A   26   2.848   1.857   0.056
    2MEL    H0B   27   3.218   1.457  -0.106
    2MEL    H0C   28   3.319   1.536  -0.228
    2MEL    H0D   29   3.104   2.062  -0.273
    2MEL    H0E   30   3.242   1.977  -0.345
    3MEL    N00   31   0.266   0.868   0.039
    3MEL    C01   32   0.364   0.871  -0.053
    3MEL    N02   33   0.428   0.990  -0.068
    3MEL    C03   34   0.529   0.988  -0.160
    3MEL    N04   35   0.599   1.103  -0.174
    3MEL    N05   36   0.566   0.880  -0.234
    3MEL    C06   37   0.494   0.768  -0.211
    3MEL    N07   38   0.526   0.658  -0.283
    3MEL    N08   39   0.389   0.757  -0.125
    3MEL    H09   40   0.234   0.956   0.085
    3MEL    H0A   41   0.215   0.779   0.056
    3MEL    H0B   42   0.584   1.178  -0.106
    3MEL    H0C   43   0.686   1.100  -0.228
    3MEL    H0D   44   0.469   0.573  -0.273
    3MEL    H0E   45   0.609   0.658  -0.345
    4MEL    N00   46   2.792   2.143   2.645
    4MEL    C01   47   2.693   2.140   2.737
    4MEL    N02   48   2.629   2.021   2.752
    4MEL    C03   49   2.528   2.023   2.844
    4MEL    N04   50   2.457   1.909   2.858
    4MEL    N05   51   2.491   2.131   2.919
    4MEL    C06   52   2.563   2.243   2.896
    4MEL    N07   53   2.531   2.353   2.967
    4MEL    N08   54   2.668   2.255   2.810
    4MEL    H09   55   2.823   2.057   2.601
    4MEL    H0A   56   2.842   2.232   2.629
    4MEL    H0B   57   2.473   1.834   2.791
    4MEL    H0C   58   2.372   1.912   2.913
    4MEL    H0D   59   2.588   2.438   2.957
    4MEL    H0E   60   2.448   2.353   3.030
    5MEL    N00   61   3.133   0.492   0.632
    5MEL    C01   62   3.034   0.495   0.724
    5MEL    N02   63   2.969   0.614   0.739
    5MEL    C03   64   2.868   0.612   0.831
    5MEL    N04   65   2.799   0.726   0.845
    5MEL    N05   66   2.831   0.505   0.906
    5MEL    C06   67   2.904   0.392   0.882
    5MEL    N07   68   2.871   0.282   0.954
    5MEL    N08   69   3.010   0.381   0.797
    5MEL    H09   70   3.163   0.580   0.588
    5MEL    H0A   71   3.183   0.403   0.616
    5MEL    H0B   72   2.814   0.803   0.776
    5MEL    H0C   73   2.712   0.723   0.900
    5MEL    H0D   74   2.928   0.197   0.944
    5MEL    H0E   75   2.789   0.283   1.017
    6MEL    N00   76   2.610   1.768   0.711
    6MEL    C01   77   2.709   1.765   0.619
    6MEL    N02   78   2.772   1.645   0.604
    6MEL    C03   79   2.873   1.648   0.512
    6MEL    N04   80   2.944   1.534   0.498
    6MEL    N05   81   2.912   1.755   0.437
    6MEL    C06   82   2.838   1.868   0.460
    6MEL    N07   83   2.870   1.978   0.389
    6MEL    N08   84   2.733   1.878   0.546
    6MEL    H09   85   2.579   1.680   0.755
    6MEL    H0A   86   2.559   1.857   0.727
    6MEL    H0B   87   2.929   1.457   0.565
    6MEL    H0C   88   3.030   1.536   0.443
    6MEL    H0D   89   2.815   2.062   0.399
    6MEL    H0E   90   2.953   1.977   0.326
    7MEL    N00   91   3.137   0.868   0.711
    7MEL    C01   92   3.235   0.871   0.619
    7MEL    N02   93   3.300   0.990   0.604
    7MEL    C03   94   3.400   0.988   0.512
    7MEL    N04   95   3.470   1.103   0.498
    7MEL    N05   96   3.438   0.880   0.437
    7MEL    C06   97   3.365   0.768   0.460
    7MEL    N07   98   3.397   0.658   0.389
    7MEL    N08   99   3.259   0.757   0.547
    7MEL    H09  100   3.106   0.956   0.756
    7MEL    H0A  101   3.086   0.779   0.727
    7MEL    H0B  102   3.455   1.178   0.565
    7MEL    H0C  103   3.557   1.100   0.443
    7MEL    H0D  104   3.341   0.573   0.399
    7MEL    H0E  105   3.480   0.658   0.326
    8MEL    N00  106   0.499   2.144   0.632
    8MEL    C01  107   0.401   2.140   0.724
    8MEL    N02  108   0.336   2.021   0.739
    8MEL    C03  109   0.235   2.023   0.831
    8MEL    N04  110   0.166   1.909   0.845
    8MEL    N05  111   0.198   2.131   0.906
    8MEL    C06  112   0.271   2.243   0.882
    8MEL    N07  113   0.238   2.353   0.954
    8MEL    N08  114   0.376   2.255   0.797
    8MEL    H09  115   0.530   2.057   0.588
    8MEL    H0A  116   0.549   2.232   0.616
    8MEL    H0B  117   0.181   1.834   0.776
    8MEL    H0C  118   0.079   1.912   0.900
    8MEL    H0D  119   0.295   2.438   0.944
    8MEL    H0E  120   0.155   2.353   1.017
    9MEL    N00  121   2.843   0.492   1.303
    9MEL    C01  122   2.744   0.495   1.395
    9MEL    N02  123   2.680   0.614   1.410
    9MEL    C03  124   2.580   0.612   1.502
    9MEL    N04  125   2.509   0.726   1.516
    9MEL    N05  126   2.541   0.505   1.577
    9MEL    C06  127   2.615   0.392   1.554
    9MEL    N07  128   2.582   0.282   1.625
    9MEL    N08  129   2.720   0.382   1.467
    9MEL    H09  130   2.873   0.580   1.259
    9MEL    H0A  131   2.894   0.403   1.287
    9MEL    H0B  132   2.524   0.803   1.448
    9MEL    H0C  133   2.422   0.723   1.571
    9MEL    H0D  134   2.638   0.197   1.614
    9MEL    H0E  135   2.499   0.283   1.688
   10MEL    N00  136   2.320   1.768   1.382
   10MEL    C01  137   2.419   1.765   1.290
   10MEL    N02  138   2.484   1.645   1.275
   10MEL    C03  139   2.584   1.648   1.183
   10MEL    N04  140   2.654   1.534   1.169
   10MEL    N05  141   2.622   1.755   1.109
   10MEL    C06  142   2.548   1.868   1.132
   10MEL    N07  143   2.582   1.978   1.060
   10MEL    N08  144   2.443   1.878   1.218
   10MEL    H09  145   2.290   1.680   1.427
   10MEL    H0A  146   2.270   1.857   1.398
   10MEL    H0B  147   2.639   1.457   1.237
   10MEL    H0C  148   2.741   1.536   1.115
   10MEL    H0D  149   2.525   2.062   1.070
   10MEL    H0E  150   2.664   1.977   0.998
   11MEL    N00  151   2.847   0.868   1.382
   11MEL    C01  152   2.946   0.871   1.290
   11MEL    N02  153   3.010   0.990   1.275
   11MEL    C03  154   3.111   0.988   1.183
   11MEL    N04  155   3.181   1.103   1.169
   11MEL    N05  156   3.148   0.880   1.109
   11MEL    C06  157   3.075   0.768   1.132
   11MEL    N07  158   3.108   0.658   1.060
   11MEL    N08  159   2.970   0.757   1.218
   11MEL    H09  160   2.816   0.956   1.427
   11MEL    H0A  161   2.797   0.779   1.398
   11MEL    H0B  162   3.166   1.178   1.238
   11MEL    H0C  163   3.267   1.100   1.115
   11MEL    H0D  164   3.051   0.573   1.070
   11MEL    H0E  165   3.190   0.658   0.998
   12MEL    N00  166   0.210   2.143   1.303
   12MEL    C01  167   0.111   2.140   1.395
   12MEL    N02  168   0.046   2.021   1.410
   12MEL    C03  169  -0.055   2.023   1.502
   12MEL    N04  170  -0.124   1.910   1.516
   12MEL    N05  171  -0.092   2.131   1.577
   12MEL    C06  172  -0.019   2.243   1.554
   12MEL    N07  173  -0.051   2.353   1.625
   12MEL    N08  174   0.087   2.255   1.468
   12MEL    H09  175   0.240   2.057   1.259
   12MEL    H0A  176   0.260   2.232   1.287
   12MEL    H0B  177  -0.109   1.834   1.448
   12MEL    H0C  178  -0.211   1.912   1.571
   12MEL    H0D  179   0.005   2.438   1.614
   12MEL    H0E  180  -0.134   2.353   1.688
   13MEL    N00  181   2.554   0.492   1.974
   13MEL    C01  182   2.455   0.495   2.066
   13MEL    N02  183   2.391   0.614   2.081
   13MEL    C03  184   2.291   0.612   2.173
   13MEL    N04  185   2.220   0.726   2.187
   13MEL    N05  186   2.253   0.505   2.247
   13MEL    C06  187   2.326   0.392   2.224
   13MEL    N07  188   2.293   0.282   2.296
   13MEL    N08  189   2.431   0.381   2.138
   13MEL    H09  190   2.585   0.580   1.929
   13MEL    H0A  191   2.605   0.403   1.958
   13MEL    H0B  192   2.235   0.803   2.119
   13MEL    H0C  193   2.133   0.723   2.241
   13MEL    H0D  194   2.349   0.197   2.286
   13MEL    H0E  195   2.210   0.283   2.359
   14MEL    N00  196   2.031   1.768   2.053
   14MEL    C01  197   2.130   1.764   1.961
   14MEL    N02  198   2.195   1.645   1.946
   14MEL    C03  199   2.295   1.648   1.854
   14MEL    N04  200   2.366   1.534   1.840
   14MEL    N05  201   2.333   1.755   1.779
   14MEL    C06  202   2.260   1.868   1.802
   14MEL    N07  203   2.293   1.978   1.732
   14MEL    N08  204   2.155   1.878   1.889
   14MEL    H09  205   2.001   1.680   2.097
   14MEL    H0A  206   1.981   1.857   2.069
   14MEL    H0B  207   2.350   1.457   1.908
   14MEL    H0C  208   2.451   1.536   1.785
   14MEL    H0D  209   2.236   2.062   1.742
   14MEL    H0E  210   2.376   1.977   1.668
   15MEL    N00  211   2.558   0.868   2.053
   15MEL    C01  212   2.656   0.871   1.961
   15MEL    N02  213   2.721   0.990   1.946
   15MEL    C03  214   2.822   0.988   1.854
   15MEL    N04  215   2.892   1.103   1.840
   15MEL    N05  216   2.859   0.880   1.779
   15MEL    C06  217   2.787   0.768   1.802
   15MEL    N07  218   2.819   0.658   1.732
   15MEL    N08  219   2.681   0.757   1.889
   15MEL    H09  220   2.527   0.956   2.098
   15MEL    H0A  221   2.508   0.779   2.069
   15MEL    H0B  222   2.876   1.178   1.907
   15MEL    H0C  223   2.978   1.100   1.785
   15MEL    H0D  224   2.762   0.573   1.742
   15MEL    H0E  225   2.902   0.658   1.668
   16MEL    N00  226   3.080   2.144   1.974
   16MEL    C01  227   2.982   2.140   2.066
   16MEL    N02  228   2.918   2.021   2.081
   16MEL    C03  229   2.817   2.023   2.173
   16MEL    N04  230   2.747   1.909   2.187
   16MEL    N05  231   2.780   2.131   2.247
   16MEL    C06  232   2.852   2.243   2.224
   16MEL    N07  233   2.820   2.353   2.296
   16MEL    N08  234   2.957   2.255   2.138
   16MEL    H09  235   3.112   2.057   1.929
   16MEL    H0A  236   3.131   2.232   1.958
   16MEL    H0B  237   2.762   1.834   2.119
   16MEL    H0C  238   2.660   1.912   2.241
   16MEL    H0D  239   2.876   2.438   2.286
   16MEL    H0E  240   2.737   2.353   2.359
   17MEL    N00  241   2.266   1.245   2.645
   17MEL    C01  242   2.167   1.248   2.737
   17MEL    N02  243   2.102   1.367   2.752
   17MEL    C03  244   2.001   1.365   2.844
   17MEL    N04  245   1.931   1.479   2.858
   17MEL    N05  246   1.964   1.258   2.920
   17MEL    C06  247   2.036   1.145   2.896
   17MEL    N07  248   2.004   1.035   2.967
   17MEL    N08  249   2.142   1.134   2.810
   17MEL    H09  250   2.296   1.333   2.601
   17MEL    H0A  251   2.316   1.156   2.629
   17MEL    H0B  252   1.947   1.556   2.791
   17MEL    H0C  253   1.845   1.476   2.913
   17MEL    H0D  254   2.061   0.950   2.957
   17MEL    H0E  255   1.921   1.036   3.030
   18MEL    N00  256   2.899   0.261   0.039
   18MEL    C01  257   2.998   0.258  -0.053
   18MEL    N02  258   3.062   0.139  -0.068
   18MEL    C03  259   3.162   0.141  -0.160
   18MEL    N04  260   3.233   0.027  -0.174
   18MEL    N05  261   3.201   0.248  -0.234
   18MEL    C06  262   3.127   0.361  -0.211
   18MEL    N07  263   3.160   0.472  -0.283
   18MEL    N08  264   3.022   0.373  -0.125
   18MEL    H09  265   2.868   0.174   0.084
   18MEL    H0A  266   2.848   0.350   0.056
   18MEL    H0B  267   3.218  -0.049  -0.106
   18MEL    H0C  268   3.319   0.030  -0.228
   18MEL    H0D  269   3.104   0.556  -0.273
   18MEL    H0E  270   3.242   0.470  -0.345
   19MEL    N00  271   0.266   1.621   0.039
   19MEL    C01  272   0.363   1.625  -0.053
   19MEL    N02  273   0.428   1.744  -0.068
   19MEL    C03  274   0.529   1.742  -0.160
   19MEL    N04  275   0.599   1.856  -0.174
   19MEL    N05  276   0.566   1.634  -0.234
   19MEL    C06  277   0.494   1.522  -0.211
   19MEL    N07  278   0.526   1.411  -0.283
   19MEL    N08  279   0.389   1.510  -0.125
   19MEL    H09  280   0.234   1.708   0.084
   19MEL    H0A  281   0.215   1.533   0.056
   19MEL    H0B  282   0.584   1.931  -0.106
   19MEL    H0C  283   0.686   1.853  -0.228
   19MEL    H0D  284   0.469   1.327  -0.273
   19MEL    H0E  285   0.609   1.411  -0.345
   20MEL    N00  286   2.792   0.638   2.645
   20MEL    C01  287   2.693   0.635   2.737
   20MEL    N02  288   2.629   0.516   2.752
   20MEL    C03  289   2.528   0.518   2.844
   20MEL    N04  290   2.457   0.404   2.858
   20MEL    N05  291   2.491   0.625   2.920
   20MEL    C06  292   2.563   0.738   2.896
   20MEL    N07  293   2.531   0.848   2.967
   20MEL    N08  294   2.668   0.748   2.810
   20MEL    H09  295   2.823   0.550   2.601
   20MEL    H0A  296   2.842   0.727   2.629
   20MEL    H0B  297   2.473   0.327   2.791
   20MEL    H0C  298   2.372   0.407   2.913
   20MEL    H0D  299   2.588   0.933   2.957
   20MEL    H0E  300   2.448   0.847   3.030
   21MEL    N00  301   3.133   1.245   0.632
   21MEL    C01  302   3.034   1.248   0.724
   21MEL    N02  303   2.969   1.367   0.739
   21MEL    C03  304   2.868   1.365   0.831
   21MEL    N04  305   2.799   1.479   0.845
   21MEL    N05  306   2.831   1.258   0.906
   21MEL    C06  307   2.904   1.145   0.882
   21MEL    N07  308   2.871   1.035   0.954
   21MEL    N08  309   3.010   1.134   0.797
   21MEL    H09  310   3.163   1.333   0.588
   21MEL    H0A  311   3.183   1.156   0.616
   21MEL    H0B  312   2.814   1.555   0.776
   21MEL    H0C  313   2.712   1.476   0.900
   21MEL    H0D  314   2.928   0.950   0.944
   21MEL    H0E  315   2.789   1.036   1.017
   22MEL    N00  316   2.610   0.261   0.711
   22MEL    C01  317   2.709   0.258   0.619
   22MEL    N02  318   2.772   0.139   0.604
   22MEL    C03  319   2.873   0.141   0.512
   22MEL    N04  320   2.944   0.027   0.498
   22MEL    N05  321   2.912   0.248   0.437
   22MEL    C06  322   2.838   0.361   0.460
   22MEL    N07  323   2.870   0.472   0.389
   22MEL    N08  324   2.733   0.373   0.546
   22MEL    H09  325   2.579   0.174   0.755
   22MEL    H0A  326   2.559   0.350   0.727
   22MEL    H0B  327   2.929  -0.049   0.565
   22MEL    H0C  328   3.030   0.030   0.443
   22MEL    H0D  329   2.815   0.556   0.399
   22MEL    H0E  330   2.953   0.470   0.326
   23MEL    N00  331   3.136   1.621   0.711
   23MEL    C01  332   3.235   1.625   0.619
   23MEL    N02  333   3.300   1.744   0.604
   23MEL    C03  334   3.400   1.742   0.512
   23MEL    N04  335   3.470   1.856   0.498
   23MEL    N05  336   3.438   1.634   0.437
   23MEL    C06  337   3.365   1.522   0.460
   23MEL    N07  338   3.397   1.411   0.389
   23MEL    N08  339   3.259   1.510   0.546
   23MEL    H09  340   3.106   1.708   0.755
   23MEL    H0A  341   3.085   1.533   0.727
   23MEL    H0B  342   3.455   1.931   0.565
   23MEL    H0C  343   3.557   1.853   0.443
   23MEL    H0D  344   3.341   1.327   0.399
   23MEL    H0E  345   3.480   1.411   0.326
   24MEL    N00  346   0.499   0.638   0.632
   24MEL    C01  347   0.401   0.635   0.724
   24MEL    N02  348   0.336   0.516   0.739
   24MEL    C03  349   0.235   0.518   0.831
   24MEL    N04  350   0.166   0.404   0.845
   24MEL    N05  351   0.198   0.625   0.906
   24MEL    C06  352   0.271   0.738   0.882
   24MEL    N07  353   0.238   0.848   0.954
   24MEL    N08  354   0.376   0.748   0.797
   24MEL    H09  355   0.530   0.550   0.588
   24MEL    H0A  356   0.549   0.727   0.616
   24MEL    H0B  357   0.181   0.327   0.777
   24MEL    H0C  358   0.079   0.406   0.900
   24MEL    H0D  359   0.295   0.932   0.944
   24MEL    H0E  360   0.155   0.847   1.017
   25MEL    N00  361   2.843   1.245   1.303
   25MEL    C01  362   2.744   1.248   1.395
   25MEL    N02  363   2.680   1.367   1.410
   25MEL    C03  364   2.580   1.365   1.502
   25MEL    N04  365   2.509   1.479   1.516
   25MEL    N05  366   2.541   1.258   1.577
   25MEL    C06  367   2.615   1.145   1.554
   25MEL    N07  368   2.582   1.035   1.625
   25MEL    N08  369   2.720   1.134   1.467
   25MEL    H09  370   2.873   1.333   1.259
   25MEL    H0A  371   2.894   1.156   1.287
   25MEL    H0B  372   2.524   1.556   1.448
   25MEL    H0C  373   2.422   1.476   1.571
   25MEL    H0D  374   2.638   0.950   1.614
   25MEL    H0E  375   2.499   1.036   1.688
   26MEL    N00  376   2.320   0.261   1.382
   26MEL    C01  377   2.419   0.258   1.290
   26MEL    N02  378   2.484   0.139   1.275
   26MEL    C03  379   2.584   0.141   1.183
   26MEL    N04  380   2.654   0.027   1.169
   26MEL    N05  381   2.622   0.248   1.109
   26MEL    C06  382   2.548   0.361   1.132
   26MEL    N07  383   2.582   0.472   1.060
   26MEL    N08  384   2.443   0.373   1.218
   26MEL    H09  385   2.290   0.174   1.427
   26MEL    H0A  386   2.270   0.350   1.398
   26MEL    H0B  387   2.639  -0.049   1.237
   26MEL    H0C  388   2.741   0.030   1.115
   26MEL    H0D  389   2.525   0.556   1.070
   26MEL    H0E  390   2.664   0.470   0.998
   27MEL    N00  391   2.847   1.621   1.382
   27MEL    C01  392   2.945   1.625   1.290
   27MEL    N02  393   3.010   1.744   1.275
   27MEL    C03  394   3.111   1.742   1.183
   27MEL    N04  395   3.181   1.855   1.169
   27MEL    N05  396   3.148   1.634   1.109
   27MEL    C06  397   3.075   1.522   1.132
   27MEL    N07  398   3.108   1.411   1.060
   27MEL    N08  399   2.970   1.510   1.218
   27MEL    H09  400   2.816   1.708   1.427
   27MEL    H0A  401   2.797   1.533   1.398
   27MEL    H0B  402   3.166   1.931   1.238
   27MEL    H0C  403   3.267   1.853   1.115
   27MEL    H0D  404   3.051   1.327   1.070
   27MEL    H0E  405   3.190   1.411   0.998
   28MEL    N00  406   0.210   0.638   1.303
   28MEL    C01  407   0.111   0.635   1.395
   28MEL    N02  408   0.046   0.516   1.410
   28MEL    C03  409  -0.055   0.518   1.502
   28MEL    N04  410  -0.124   0.404   1.516
   28MEL    N05  411  -0.092   0.625   1.577
   28MEL    C06  412  -0.019   0.738   1.554
   28MEL    N07  413  -0.051   0.848   1.625
   28MEL    N08  414   0.087   0.748   1.468
   28MEL    H09  415   0.240   0.550   1.258
   28MEL    H0A  416   0.260   0.727   1.287
   28MEL    H0B  417  -0.109   0.327   1.448
   28MEL    H0C  418  -0.211   0.407   1.571
   28MEL    H0D  419   0.005   0.933   1.614
   28MEL    H0E  420  -0.134   0.847   1.688
   29MEL    N00  421   2.554   1.245   1.974
   29MEL    C01  422   2.455   1.248   2.066
   29MEL    N02  423   2.391   1.367   2.081
   29MEL    C03  424   2.291   1.365   2.173
   29MEL    N04  425   2.220   1.479   2.187
   29MEL    N05  426   2.253   1.258   2.247
   29MEL    C06  427   2.326   1.145   2.224
   29MEL    N07  428   2.293   1.035   2.296
   29MEL    N08  429   2.431   1.134   2.138
   29MEL    H09  430   2.585   1.333   1.929
   29MEL    H0A  431   2.605   1.156   1.958
   29MEL    H0B  432   2.235   1.555   2.119
   29MEL    H0C  433   2.133   1.476   2.241
   29MEL    H0D  434   2.349   0.950   2.286
   29MEL    H0E  435   2.210   1.036   2.359
   30MEL    N00  436   2.031   0.261   2.053
   30MEL    C01  437   2.130   0.258   1.961
   30MEL    N02  438   2.195   0.139   1.946
   30MEL    C03  439   2.295   0.141   1.854
   30MEL    N04  440   2.366   0.027   1.840
   30MEL    N05  441   2.333   0.248   1.779
   30MEL    C06  442   2.260   0.361   1.802
   30MEL    N07  443   2.293   0.472   1.732
   30MEL    N08  444   2.155   0.373   1.889
   30MEL    H09  445   2.001   0.174   2.098
   30MEL    H0A  446   1.981   0.350   2.069
   30MEL    H0B  447   2.350  -0.049   1.908
   30MEL    H0C  448   2.451   0.030   1.785
   30MEL    H0D  449   2.236   0.556   1.742
   30MEL    H0E  450   2.376   0.470   1.668
   31MEL    N00  451   2.557   1.621   2.053
   31MEL    C01  452   2.656   1.625   1.961
   31MEL    N02  453   2.721   1.744   1.946
   31MEL    C03  454   2.822   1.742   1.854
   31MEL    N04  455   2.892   1.856   1.840
   31MEL    N05  456   2.859   1.634   1.779
   31MEL    C06  457   2.787   1.522   1.802
   31MEL    N07  458   2.819   1.411   1.732
   31MEL    N08  459   2.681   1.510   1.889
   31MEL    H09  460   2.527   1.709   2.098
   31MEL    H0A  461   2.507   1.533   2.069
   31MEL    H0B  462   2.876   1.931   1.907
   31MEL    H0C  463   2.978   1.853   1.785
   31MEL    H0D  464   2.762   1.327   1.742
   31MEL    H0E  465   2.902   1.411   1.668
   32MEL    N00  466   3.080   0.638   1.974
   32MEL    C01  467   2.981   0.635   2.066
   32MEL    N02  468   2.918   0.516   2.081
   32MEL    C03  469   2.817   0.518   2.173
   32MEL    N04  470   2.747   0.404   2.187
   32MEL    N05  471   2.780   0.625   2.247
   32MEL    C06  472   2.852   0.738   2.224
   32MEL    N07  473   2.820   0.848   2.296
   32MEL    N08  474   2.957   0.748   2.138
   32MEL    H09  475   3.112   0.550   1.928
   32MEL    H0A  476   3.131   0.727   1.958
   32MEL    H0B  477   2.762   0.327   2.119
   32MEL    H0C  478   2.660   0.407   2.241
   32MEL    H0D  479   2.876   0.933   2.286
   32MEL    H0E  480   2.737   0.847   2.359
   33MEL    N00  481   2.266   1.998   2.645
   33MEL    C01  482   2.167   2.001   2.737
   33MEL    N02  483   2.102   2.120   2.752
   33MEL    C03  484   2.001   2.118   2.844
   33MEL    N04  485   1.931   2.232   2.858
   33MEL    N05  486   1.964   2.011   2.920
   33MEL    C06  487   2.036   1.898   2.896
   33MEL    N07  488   2.004   1.788   2.967
   33MEL    N08  489   2.142   1.887   2.810
   33MEL    H09  490   2.296   2.086   2.601
   33MEL    H0A  491   2.316   1.909   2.629
   33MEL    H0B  492   1.947   2.308   2.791
   33MEL    H0C  493   1.845   2.229   2.913
   33MEL    H0D  494   2.061   1.703   2.957
   33MEL    H0E  495   1.921   1.788   3.030
   34MEL    N00  496   2.899   1.015   0.039
   34MEL    C01  497   2.998   1.012  -0.053
   34MEL    N02  498   3.062   0.893  -0.068
   34MEL    C03  499   3.162   0.895  -0.160
   34MEL    N04  500   3.233   0.780  -0.174
   34MEL    N05  501   3.201   1.002  -0.234
   34MEL    C06  502   3.127   1.115  -0.211
   34MEL    N07  503   3.160   1.225  -0.283
   34MEL    N08  504   3.022   1.126  -0.125
   34MEL    H09  505   2.868   0.927   0.085
   34MEL    H0A  506   2.848   1.104   0.056
   34MEL    H0B  507   3.218   0.704  -0.106
   34MEL    H0C  508   3.319   0.783  -0.228
   34MEL    H0D  509   3.104   1.310  -0.273
   34MEL    H0E  510   3.242   1.224  -0.345
   35MEL    N00  511   0.266   0.115   0.039
   35MEL    C01  512   0.363   0.118  -0.053
   35MEL    N02  513   0.428   0.237  -0.068
   35MEL    C03  514   0.529   0.235  -0.160
   35MEL    N04  515   0.599   0.349  -0.174
   35MEL    N05  516   0.566   0.128  -0.234
   35MEL    C06  517   0.494   0.015  -0.211
   35MEL    N07  518   0.526  -0.095  -0.283
   35MEL    N08  519   0.389   0.005  -0.125
   35MEL    H09  520   0.234   0.203   0.084
   35MEL    H0A  521   0.215   0.026   0.056
   35MEL    H0B  522   0.584   0.426  -0.106
   35MEL    H0C  523   0.686   0.346  -0.228
   35MEL    H0D  524   0.469  -0.180  -0.273
   35MEL    H0E  525   0.609  -0.094  -0.345
   36MEL    N00  526   2.792   1.391   2.645
   36MEL    C01  527   2.693   1.388   2.737
   36MEL    N02  528   2.629   1.269   2.752
   36MEL    C03  529   2.528   1.271   2.844
   36MEL    N04  530   2.457   1.157   2.858
   36MEL    N05  531   2.491   1.378   2.919
   36MEL    C06  532   2.563   1.491   2.896
   36MEL    N07  533   2.531   1.601   2.967
   36MEL    N08  534   2.668   1.501   2.810
   36MEL    H09  535   2.823   1.303   2.601
   36MEL    H0A  536   2.842   1.480   2.629
   36MEL    H0B  537   2.473   1.080   2.791
   36MEL    H0C  538   2.372   1.159   2.913
   36MEL    H0D  539   2.588   1.685   2.957
   36MEL    H0E  540   2.448   1.600   3.030
   37MEL    N00  541   3.133   1.998   0.632
   37MEL    C01  542   3.034   2.001   0.724
   37MEL    N02  543   2.969   2.120   0.739
   37MEL    C03  544   2.868   2.118   0.831
   37MEL    N04  545   2.799   2.232   0.845
   37MEL    N05  546   2.831   2.010   0.906
   37MEL    C06  547   2.904   1.898   0.882
   37MEL    N07  548   2.871   1.788   0.954
   37MEL    N08  549   3.010   1.887   0.797
   37MEL    H09  550   3.163   2.086   0.588
   37MEL    H0A  551   3.183   1.909   0.616
   37MEL    H0B  552   2.814   2.308   0.776
   37MEL    H0C  553   2.712   2.229   0.900
   37MEL    H0D  554   2.928   1.703   0.944
   37MEL    H0E  555   2.789   1.788   1.017
   38MEL    N00  556   2.610   1.015   0.711
   38MEL    C01  557   2.709   1.012   0.619
   38MEL    N02  558   2.772   0.893   0.604
   38MEL    C03  559   2.873   0.895   0.512
   38MEL    N04  560   2.944   0.780   0.498
   38MEL    N05  561   2.912   1.002   0.437
   38MEL    C06  562   2.838   1.115   0.460
   38MEL    N07  563   2.870   1.225   0.389
   38MEL    N08  564   2.733   1.126   0.546
   38MEL    H09  565   2.579   0.927   0.755
   38MEL    H0A  566   2.559   1.104   0.727
   38MEL    H0B  567   2.929   0.704   0.565
   38MEL    H0C  568   3.030   0.783   0.443
   38MEL    H0D  569   2.815   1.310   0.399
   38MEL    H0E  570   2.953   1.224   0.326
   39MEL    N00  571   3.136   0.115   0.711
   39MEL    C01  572   3.235   0.118   0.619
   39MEL    N02  573   3.300   0.237   0.604
   39MEL    C03  574   3.400   0.235   0.512
   39MEL    N04  575   3.470   0.349   0.498
   39MEL    N05  576   3.438   0.128   0.437
   39MEL    C06  577   3.365   0.015   0.460
   39MEL    N07  578   3.397  -0.095   0.389
   39MEL    N08  579   3.259   0.005   0.546
   39MEL    H09  580   3.106   0.203   0.755
   39MEL    H0A  581   3.085   0.026   0.727
   39MEL    H0B  582   3.455   0.426   0.565
   39MEL    H0C  583   3.557   0.346   0.443
   39MEL    H0D  584   3.341  -0.180   0.399
   39MEL    H0E  585   3.480  -0.094   0.326
   40MEL    N00  586   0.499   1.391   0.632
   40MEL    C01  587   0.401   1.388   0.724
   40MEL    N02  588   0.336   1.269   0.739
   40MEL    C03  589   0.235   1.271   0.831
   40MEL    N04  590   0.166   1.157   0.845
   40MEL    N05  591   0.198   1.378   0.906
   40MEL    C06  592   0.271   1.491   0.882
   40MEL    N07  593   0.238   1.601   0.954
   40MEL    N08  594   0.376   1.501   0.797
   40MEL    H09  595   0.530   1.303   0.588
   40MEL    H0A  596   0.549   1.480   0.616
   40MEL    H0B  597   0.181   1.080   0.776
   40MEL    H0C  598   0.079   1.159   0.900
   40MEL    H0D  599   0.295   1.685   0.944
   40MEL    H0E  600   0.155   1.600   1.017
   41MEL    N00  601   2.843   1.998   1.303
   41MEL    C01  602   2.744   2.001   1.395
   41MEL    N02  603   2.680   2.120   1.410
   41MEL    C03  604   2.580   2.118   1.502
   41MEL    N04  605   2.509   2.232   1.516
   41MEL    N05  606   2.541   2.011   1.577
   41MEL    C06  607   2.615   1.898   1.554
   41MEL    N07  608   2.582   1.788   1.625
   41MEL    N08  609   2.720   1.887   1.467
   41MEL    H09  610   2.873   2.086   1.259
   41MEL    H0A  611   2.894   1.909   1.287
   41MEL    H0B  612   2.524   2.308   1.448
   41MEL    H0C  613   2.422   2.229   1.571
   41MEL    H0D  614   2.638   1.703   1.614
   41MEL    H0E  615   2.499   1.788   1.688
   42MEL    N00  616   2.320   1.015   1.382
   42MEL    C01  617   2.419   1.012   1.290
   42MEL    N02  618   2.484   0.893   1.275
   42MEL    C03  619   2.584   0.895   1.183
   42MEL    N04  620   2.654   0.780   1.169
   42MEL    N05  621   2.622   1.002   1.109
   42MEL    C06  622   2.548   1.115   1.132
   42MEL    N07  623   2.582   1.225   1.060
   42MEL    N08  624   2.443   1.126   1.218
   42MEL    H09  625   2.290   0.927   1.427
   42MEL    H0A  626   2.270   1.104   1.398
   42MEL    H0B  627   2.639   0.704   1.237
   42MEL    H0C  628   2.740   0.783   1.115
   42MEL    H0D  629   2.525   1.310   1.070
   42MEL    H0E  630   2.664   1.224   0.998
   43MEL    N00  631   2.847   0.115   1.382
   43MEL    C01  632   2.946   0.118   1.290
   43MEL    N02  633   3.010   0.237   1.275
   43MEL    C03  634   3.111   0.235   1.183
   43MEL    N04  635   3.181   0.349   1.169
   43MEL    N05  636   3.148   0.128   1.109
   43MEL    C06  637   3.075   0.015   1.132
   43MEL    N07  638   3.108  -0.095   1.060
   43MEL    N08  639   2.970   0.005   1.218
   43MEL    H09  640   2.816   0.203   1.427
   43MEL    H0A  641   2.797   0.026   1.398
   43MEL    H0B  642   3.166   0.426   1.238
   43MEL    H0C  643   3.267   0.346   1.115
   43MEL    H0D  644   3.051  -0.180   1.070
   43MEL    H0E  645   3.190  -0.094   0.998
   44MEL    N00  646   0.210   1.391   1.303
   44MEL    C01  647   0.111   1.388   1.395
   44MEL    N02  648   0.046   1.268   1.409
   44MEL    C03  649  -0.055   1.271   1.502
   44MEL    N04  650  -0.124   1.157   1.516
   44MEL    N05  651  -0.092   1.378   1.577
   44MEL    C06  652  -0.019   1.491   1.554
   44MEL    N07  653  -0.051   1.601   1.625
   44MEL    N08  654   0.087   1.501   1.467
   44MEL    H09  655   0.240   1.303   1.258
   44MEL    H0A  656   0.260   1.480   1.287
   44MEL    H0B  657  -0.109   1.080   1.448
   44MEL    H0C  658  -0.211   1.160   1.571
   44MEL    H0D  659   0.005   1.685   1.614
   44MEL    H0E  660  -0.134   1.600   1.688
   45MEL    N00  661   2.554   1.998   1.974
   45MEL    C01  662   2.455   2.001   2.066
   45MEL    N02  663   2.391   2.120   2.081
   45MEL    C03  664   2.291   2.118   2.173
   45MEL    N04  665   2.220   2.232   2.187
   45MEL    N05  666   2.253   2.011   2.247
   45MEL    C06  667   2.326   1.898   2.224
   45MEL    N07  668   2.293   1.788   2.296
   45MEL    N08  669   2.431   1.887   2.138
   45MEL    H09  670   2.585   2.086   1.929
   45MEL    H0A  671   2.605   1.909   1.958
   45MEL    H0B  672   2.235   2.308   2.119
   45MEL    H0C  673   2.133   2.229   2.241
   45MEL    H0D  674   2.349   1.703   2.286
   45MEL    H0E  675   2.210   1.788   2.359
   46MEL    N00  676   2.031   1.015   2.053
   46MEL    C01  677   2.130   1.012   1.961
   46MEL    N02  678   2.195   0.893   1.947
   46MEL    C03  679   2.295   0.895   1.854
   46MEL    N04  680   2.366   0.780   1.840
   46MEL    N05  681   2.333   1.002   1.779
   46MEL    C06  682   2.260   1.115   1.802
   46MEL    N07  683   2.293   1.225   1.732
   46MEL    N08  684   2.155   1.125   1.889
   46MEL    H09  685   2.001   0.927   2.098
   46MEL    H0A  686   1.981   1.104   2.069
   46MEL    H0B  687   2.350   0.704   1.908
   46MEL    H0C  688   2.451   0.783   1.785
   46MEL    H0D  689   2.236   1.310   1.742
   46MEL    H0E  690   2.376   1.224   1.668
   47MEL    N00  691   2.557   0.115   2.053
   47MEL    C01  692   2.656   0.118   1.961
   47MEL    N02  693   2.721   0.237   1.946
   47MEL    C03  694   2.822   0.235   1.854
   47MEL    N04  695   2.892   0.349   1.840
   47MEL    N05  696   2.859   0.128   1.779
   47MEL    C06  697   2.787   0.015   1.802
   47MEL    N07  698   2.819  -0.095   1.732
   47MEL    N08  699   2.681   0.005   1.889
   47MEL    H09  700   2.527   0.203   2.097
   47MEL    H0A  701   2.507   0.026   2.069
   47MEL    H0B  702   2.876   0.426   1.907
   47MEL    H0C  703   2.978   0.346   1.785
   47MEL    H0D  704   2.762  -0.180   1.742
   47MEL    H0E  705   2.902  -0.094   1.668
   48MEL    N00  706   3.080   1.391   1.974
   48MEL    C01  707   2.982   1.388   2.066
   48MEL    N02  708   2.918   1.269   2.081
   48MEL    C03  709   2.817   1.271   2.173
   48MEL    N04  710   2.747   1.157   2.187
   48MEL    N05  711   2.780   1.378   2.247
   48MEL    C06  712   2.852   1.491   2.224
   48MEL    N07  713   2.820   1.601   2.296
   48MEL    N08  714   2.957   1.501   2.138
   48MEL    H09  715   3.112   1.303   1.928
   48MEL    H0A  716   3.131   1.480   1.958
   48MEL    H0B  717   2.762   1.080   2.119
   48MEL    H0C  718   2.660   1.159   2.241
   48MEL    H0D  719   2.876   1.685   2.286
   48MEL    H0E  720   2.737   1.600   2.359
   49MEL    N00  721   0.159   0.492   2.645
   49MEL    C01  722   0.060   0.495   2.737
   49MEL    N02  723  -0.005   0.614   2.752
   49MEL    C03  724  -0.106   0.612   2.844
   49MEL    N04  725  -0.176   0.726   2.858
   49MEL    N05  726  -0.143   0.505   2.919
   49MEL    C06  727  -0.070   0.392   2.896
   49MEL    N07  728  -0.103   0.282   2.967
   49MEL    N08  729   0.035   0.381   2.810
   49MEL    H09  730   0.189   0.580   2.601
   49MEL    H0A  731   0.209   0.403   2.629
   49MEL    H0B  732  -0.161   0.803   2.791
   49MEL    H0C  733  -0.263   0.723   2.913
   49MEL    H0D  734  -0.046   0.197   2.957
   49MEL    H0E  735  -0.186   0.283   3.030
   50MEL    N00  736   0.792   1.768   0.039
   50MEL    C01  737   0.891   1.765  -0.053
   50MEL    N02  738   0.955   1.645  -0.068
   50MEL    C03  739   1.055   1.648  -0.160
   50MEL    N04  740   1.126   1.534  -0.174
   50MEL    N05  741   1.093   1.755  -0.234
   50MEL    C06  742   1.020   1.868  -0.211
   50MEL    N07  743   1.053   1.978  -0.283
   50MEL    N08  744   0.915   1.878  -0.125
   50MEL    H09  745   0.761   1.680   0.084
   50MEL    H0A  746   0.741   1.857   0.056
   50MEL    H0B  747   1.111   1.457  -0.106
   50MEL    H0C  748   1.213   1.536  -0.228
   50MEL    H0D  749   0.997   2.062  -0.273
   50MEL    H0E  750   1.136   1.977  -0.345
   51MEL    N00  751   1.319   0.868   0.039
   51MEL    C01  752   1.418   0.871  -0.053
   51MEL    N02  753   1.481   0.990  -0.068
   51MEL    C03  754   1.582   0.988  -0.160
   51MEL    N04  755   1.653   1.103  -0.174
   51MEL    N05  756   1.619   0.880  -0.234
   51MEL    C06  757   1.547   0.768  -0.211
   51MEL    N07  758   1.579   0.658  -0.283
   51MEL    N08  759   1.442   0.757  -0.125
   51MEL    H09  760   1.287   0.956   0.085
   51MEL    H0A  761   1.268   0.779   0.056
   51MEL    H0B  762   1.638   1.178  -0.105
   51MEL    H0C  763   1.739   1.100  -0.228
   51MEL    H0D  764   1.523   0.573  -0.273
   51MEL    H0E  765   1.662   0.658  -0.345
   52MEL    N00  766   0.686   2.144   2.645
   52MEL    C01  767   0.587   2.140   2.737
   52MEL    N02  768   0.522   2.021   2.752
   52MEL    C03  769   0.421   2.023   2.844
   52MEL    N04  770   0.351   1.910   2.858
   52MEL    N05  771   0.384   2.131   2.919
   52MEL    C06  772   0.456   2.243   2.896
   52MEL    N07  773   0.424   2.353   2.967
   52MEL    N08  774   0.562   2.255   2.810
   52MEL    H09  775   0.716   2.057   2.601
   52MEL    H0A  776   0.736   2.232   2.629
   52MEL    H0B  777   0.367   1.834   2.791
   52MEL    H0C  778   0.265   1.912   2.913
   52MEL    H0D  779   0.481   2.438   2.957
   52MEL    H0E  780   0.341   2.353   3.030
   53MEL    N00  781   1.026   0.492   0.632
   53MEL    C01  782   0.927   0.495   0.724
   53MEL    N02  783   0.862   0.614   0.739
   53MEL    C03  784   0.762   0.612   0.831
   53MEL    N04  785   0.692   0.726   0.845
   53MEL    N05  786   0.724   0.505   0.906
   53MEL    C06  787   0.798   0.392   0.882
   53MEL    N07  788   0.764   0.282   0.954
   53MEL    N08  789   0.903   0.381   0.797
   53MEL    H09  790   1.056   0.580   0.588
   53MEL    H0A  791   1.076   0.403   0.616
   53MEL    H0B  792   0.707   0.803   0.776
   53MEL    H0C  793   0.606   0.723   0.900
   53MEL    H0D  794   0.821   0.197   0.944
   53MEL    H0E  795   0.682   0.283   1.017
   54MEL    N00  796   0.503   1.768   0.711
   54MEL    C01  797   0.602   1.765   0.619
   54MEL    N02  798   0.666   1.645   0.604
   54MEL    C03  799   0.766   1.648   0.512
   54MEL    N04  800   0.837   1.534   0.498
   54MEL    N05  801   0.805   1.755   0.437
   54MEL    C06  802   0.731   1.868   0.460
   54MEL    N07  803   0.764   1.978   0.389
   54MEL    N08  804   0.626   1.878   0.546
   54MEL    H09  805   0.473   1.680   0.755
   54MEL    H0A  806   0.452   1.857   0.727
   54MEL    H0B  807   0.822   1.457   0.565
   54MEL    H0C  808   0.924   1.536   0.443
   54MEL    H0D  809   0.708   2.062   0.399
   54MEL    H0E  810   0.847   1.977   0.326
   55MEL    N00  811   1.030   0.868   0.711
   55MEL    C01  812   1.128   0.871   0.619
   55MEL    N02  813   1.192   0.990   0.604
   55MEL    C03  814   1.293   0.988   0.512
   55MEL    N04  815   1.363   1.103   0.498
   55MEL    N05  816   1.331   0.880   0.437
   55MEL    C06  817   1.258   0.768   0.460
   55MEL    N07  818   1.290   0.658   0.389
   55MEL    N08  819   1.153   0.757   0.546
   55MEL    H09  820   0.999   0.956   0.756
   55MEL    H0A  821   0.979   0.779   0.727
   55MEL    H0B  822   1.348   1.178   0.565
   55MEL    H0C  823   1.450   1.100   0.443
   55MEL    H0D  824   1.234   0.573   0.399
   55MEL    H0E  825   1.373   0.658   0.326
   56MEL    N00  826   1.552   2.144   0.632
   56MEL    C01  827   1.454   2.140   0.724
   56MEL    N02  828   1.389   2.021   0.739
   56MEL    C03  829   1.288   2.023   0.831
   56MEL    N04  830   1.219   1.909   0.845
   56MEL    N05  831   1.251   2.131   0.906
   56MEL    C06  832   1.324   2.243   0.882
   56MEL    N07  833   1.291   2.353   0.954
   56MEL    N08  834   1.430   2.255   0.797
   56MEL    H09  835   1.583   2.057   0.588
   56MEL    H0A  836   1.602   2.232   0.616
   56MEL    H0B  837   1.234   1.834   0.776
   56MEL    H0C  838   1.132   1.912   0.900
   56MEL    H0D  839   1.348   2.438   0.944
   56MEL    H0E  840   1.209   2.353   1.017
   57MEL    N00  841   0.737   0.492   1.303
   57MEL    C01  842   0.638   0.495   1.395
   57MEL    N02  843   0.573   0.614   1.409
   57MEL    C03  844   0.473   0.612   1.501
   57MEL    N04  845   0.403   0.726   1.516
   57MEL    N05  846   0.435   0.505   1.577
   57MEL    C06  847   0.508   0.392   1.554
   57MEL    N07  848   0.476   0.282   1.625
   57MEL    N08  849   0.614   0.381   1.468
   57MEL    H09  850   0.767   0.580   1.259
   57MEL    H0A  851   0.788   0.403   1.287
   57MEL    H0B  852   0.418   0.803   1.448
   57MEL    H0C  853   0.316   0.723   1.571
   57MEL    H0D  854   0.532   0.197   1.615
   57MEL    H0E  855   0.393   0.283   1.688
   58MEL    N00  856   0.214   1.768   1.382
   58MEL    C01  857   0.313   1.765   1.290
   58MEL    N02  858   0.377   1.645   1.275
   58MEL    C03  859   0.478   1.648   1.183
   58MEL    N04  860   0.548   1.534   1.169
   58MEL    N05  861   0.516   1.755   1.109
   58MEL    C06  862   0.442   1.868   1.132
   58MEL    N07  863   0.476   1.978   1.060
   58MEL    N08  864   0.337   1.878   1.218
   58MEL    H09  865   0.183   1.680   1.427
   58MEL    H0A  866   0.164   1.857   1.398
   58MEL    H0B  867   0.533   1.457   1.237
   58MEL    H0C  868   0.634   1.536   1.115
   58MEL    H0D  869   0.419   2.062   1.070
   58MEL    H0E  870   0.557   1.977   0.998
   59MEL    N00  871   0.741   0.868   1.382
   59MEL    C01  872   0.839   0.871   1.290
   59MEL    N02  873   0.904   0.990   1.275
   59MEL    C03  874   1.005   0.988   1.183
   59MEL    N04  875   1.074   1.103   1.169
   59MEL    N05  876   1.042   0.880   1.109
   59MEL    C06  877   0.969   0.768   1.132
   59MEL    N07  878   1.002   0.658   1.060
   59MEL    N08  879   0.864   0.757   1.218
   59MEL    H09  880   0.710   0.956   1.428
   59MEL    H0A  881   0.691   0.779   1.398
   59MEL    H0B  882   1.059   1.178   1.237
   59MEL    H0C  883   1.161   1.100   1.115
   59MEL    H0D  884   0.945   0.573   1.070
   59MEL    H0E  885   1.084   0.658   0.998
   60MEL    N00  886   1.263   2.143   1.303
   60MEL    C01  887   1.165   2.140   1.395
   60MEL    N02  888   1.101   2.021   1.410
   60MEL    C03  889   1.000   2.023   1.502
   60MEL    N04  890   0.930   1.909   1.516
   60MEL    N05  891   0.962   2.131   1.577
   60MEL    C06  892   1.035   2.243   1.554
   60MEL    N07  893   1.003   2.353   1.625
   60MEL    N08  894   1.140   2.255   1.468
   60MEL    H09  895   1.294   2.057   1.259
   60MEL    H0A  896   1.314   2.232   1.287
   60MEL    H0B  897   0.945   1.834   1.448
   60MEL    H0C  898   0.843   1.912   1.571
   60MEL    H0D  899   1.059   2.438   1.615
   60MEL    H0E  900   0.920   2.353   1.688
   61MEL    N00  901   0.447   0.492   1.974
   61MEL    C01  902   0.348   0.495   2.066
   61MEL    N02  903   0.284   0.614   2.081
   61MEL    C03  904   0.184   0.612   2.173
   61MEL    N04  905   0.113   0.726   2.187
   61MEL    N05  906   0.145   0.505   2.247
   61MEL    C06  907   0.219   0.392   2.224
   61MEL    N07  908   0.186   0.282   2.296
   61MEL    N08  909   0.324   0.381   2.138
   61MEL    H09  910   0.478   0.580   1.929
   61MEL    H0A  911   0.498   0.403   1.958
   61MEL    H0B  912   0.128   0.803   2.119
   61MEL    H0C  913   0.027   0.723   2.241
   61MEL    H0D  914   0.242   0.197   2.286
   61MEL    H0E  915   0.103   0.283   2.359
   62MEL    N00  916   3.084   1.768   2.053
   62MEL    C01  917   3.183   1.765   1.961
   62MEL    N02  918   3.248   1.645   1.946
   62MEL    C03  919   3.348   1.648   1.854
   62MEL    N04  920   3.419   1.534   1.840
   62MEL    N05  921   3.386   1.755   1.779
   62MEL    C06  922   3.313   1.868   1.802
   62MEL    N07  923   3.346   1.977   1.732
   62MEL    N08  924   3.208   1.878   1.888
   62MEL    H09  925   3.054   1.680   2.097
   62MEL    H0A  926   3.034   1.857   2.069
   62MEL    H0B  927   3.404   1.457   1.908
   62MEL    H0C  928   3.505   1.536   1.785
   62MEL    H0D  929   3.289   2.062   1.741
   62MEL    H0E  930   3.429   1.977   1.668
   63MEL    N00  931   0.451   0.868   2.053
   63MEL    C01  932   0.550   0.871   1.961
   63MEL    N02  933   0.614   0.990   1.947
   63MEL    C03  934   0.715   0.988   1.855
   63MEL    N04  935   0.786   1.103   1.840
   63MEL    N05  936   0.753   0.880   1.779
   63MEL    C06  937   0.679   0.768   1.802
   63MEL    N07  938   0.712   0.658   1.732
   63MEL    N08  939   0.574   0.757   1.889
   63MEL    H09  940   0.420   0.956   2.098
   63MEL    H0A  941   0.401   0.779   2.069
   63MEL    H0B  942   0.770   1.178   1.908
   63MEL    H0C  943   0.871   1.100   1.785
   63MEL    H0D  944   0.655   0.573   1.741
   63MEL    H0E  945   0.795   0.658   1.668
   64MEL    N00  946   0.974   2.144   1.974
   64MEL    C01  947   0.875   2.140   2.066
   64MEL    N02  948   0.811   2.021   2.081
   64MEL    C03  949   0.710   2.023   2.173
   64MEL    N04  950   0.640   1.910   2.187
   64MEL    N05  951   0.672   2.131   2.247
   64MEL    C06  952   0.745   2.243   2.224
   64MEL    N07  953   0.713   2.353   2.296
   64MEL    N08  954   0.851   2.255   2.138
   64MEL    H09  955   1.005   2.057   1.929
   64MEL    H0A  956   1.025   2.232   1.958
   64MEL    H0B  957   0.655   1.834   2.118
   64MEL    H0C  958   0.553   1.912   2.241
   64MEL    H0D  959   0.769   2.438   2.286
   64MEL    H0E  960   0.630   2.353   2.359
   65MEL    N00  961   0.159   1.245   2.645
   65MEL    C01  962   0.060   1.248   2.737
   65MEL    N02  963  -0.005   1.367   2.752
   65MEL    C03  964  -0.106   1.365   2.844
   65MEL    N04  965  -0.176   1.479   2.858
   65MEL    N05  966  -0.143   1.258   2.919
   65MEL    C06  967  -0.070   1.145   2.896
   65MEL    N07  968  -0.103   1.035   2.967
   65MEL    N08  969   0.035   1.134   2.810
   65MEL    H09  970   0.189   1.333   2.601
   65MEL    H0A  971   0.209   1.156   2.629
   65MEL    H0B  972  -0.161   1.556   2.791
   65MEL    H0C  973  -0.263   1.476   2.913
   65MEL    H0D  974  -0.046   0.950   2.957
   65MEL    H0E  975  -0.186   1.036   3.030
   66MEL    N00  976   0.792   0.261   0.039
   66MEL    C01  977   0.891   0.258  -0.053
   66MEL    N02  978   0.955   0.139  -0.068
   66MEL    C03  979   1.055   0.141  -0.160
   66MEL    N04  980   1.126   0.027  -0.174
   66MEL    N05  981   1.093   0.248  -0.234
   66MEL    C06  982   1.020   0.361  -0.211
   66MEL    N07  983   1.053   0.472  -0.283
   66MEL    N08  984   0.915   0.373  -0.125
   66MEL    H09  985   0.761   0.174   0.084
   66MEL    H0A  986   0.741   0.350   0.056
   66MEL    H0B  987   1.111  -0.049  -0.106
   66MEL    H0C  988   1.213   0.030  -0.228
   66MEL    H0D  989   0.997   0.556  -0.273
   66MEL    H0E  990   1.136   0.470  -0.345
   67MEL    N00  991   1.319   1.621   0.039
   67MEL    C01  992   1.418   1.625  -0.053
   67MEL    N02  993   1.481   1.744  -0.068
   67MEL    C03  994   1.582   1.742  -0.160
   67MEL    N04  995   1.653   1.855  -0.174
   67MEL    N05  996   1.619   1.634  -0.234
   67MEL    C06  997   1.547   1.522  -0.211
   67MEL    N07  998   1.579   1.411  -0.283
   67MEL    N08  999   1.442   1.510  -0.125
   67MEL    H09 1000   1.287   1.708   0.084
   67MEL    H0A 1001   1.268   1.533   0.056
   67MEL    H0B 1002   1.638   1.931  -0.105
   67MEL    H0C 1003   1.739   1.853  -0.228
   67MEL    H0D 1004   1.523   1.327  -0.273
   67MEL    H0E 1005   1.662   1.411  -0.345
   68MEL    N00 1006   0.686   0.638   2.645
   68MEL    C01 1007   0.587   0.635   2.737
   68MEL    N02 1008   0.522   0.516   2.752
   68MEL    C03 1009   0.421   0.518   2.844
   68MEL    N04 1010   0.351   0.404   2.858
   68MEL    N05 1011   0.384   0.625   2.919
   68MEL    C06 1012   0.456   0.738   2.896
   68MEL    N07 1013   0.424   0.848   2.967
   68MEL    N08 1014   0.562   0.748   2.810
   68MEL    H09 1015   0.716   0.550   2.601
   68MEL    H0A 1016   0.735   0.727   2.629
   68MEL    H0B 1017   0.367   0.327   2.791
   68MEL    H0C 1018   0.265   0.407   2.913
   68MEL    H0D 1019   0.481   0.933   2.957
   68MEL    H0E 1020   0.341   0.847   3.030
   69MEL    N00 1021   1.026   1.245   0.632
   69MEL    C01 1022   0.927   1.248   0.724
   69MEL    N02 1023   0.862   1.367   0.739
   69MEL    C03 1024   0.762   1.365   0.831
   69MEL    N04 1025   0.692   1.479   0.845
   69MEL    N05 1026   0.724   1.258   0.906
   69MEL    C06 1027   0.798   1.145   0.882
   69MEL    N07 1028   0.764   1.035   0.954
   69MEL    N08 1029   0.903   1.134   0.797
   69MEL    H09 1030   1.056   1.333   0.588
   69MEL    H0A 1031   1.076   1.156   0.616
   69MEL    H0B 1032   0.707   1.556   0.776
   69MEL    H0C 1033   0.606   1.476   0.900
   69MEL    H0D 1034   0.821   0.950   0.944
   69MEL    H0E 1035   0.682   1.036   1.017
   70MEL    N00 1036   0.503   0.261   0.711
   70MEL    C01 1037   0.602   0.258   0.619
   70MEL    N02 1038   0.666   0.139   0.604
   70MEL    C03 1039   0.766   0.141   0.512
   70MEL    N04 1040   0.837   0.027   0.498
   70MEL    N05 1041   0.805   0.248   0.437
   70MEL    C06 1042   0.731   0.361   0.460
   70MEL    N07 1043   0.764   0.472   0.389
   70MEL    N08 1044   0.626   0.373   0.546
   70MEL    H09 1045   0.473   0.174   0.755
   70MEL    H0A 1046   0.452   0.350   0.727
   70MEL    H0B 1047   0.822  -0.049   0.565
   70MEL    H0C 1048   0.923   0.030   0.443
   70MEL    H0D 1049   0.708   0.556   0.399
   70MEL    H0E 1050   0.847   0.470   0.326
   71MEL    N00 1051   1.030   1.621   0.711
   71MEL    C01 1052   1.128   1.625   0.619
   71MEL    N02 1053   1.192   1.744   0.604
   71MEL    C03 1054   1.293   1.742   0.512
   71MEL    N04 1055   1.363   1.856   0.498
   71MEL    N05 1056   1.331   1.634   0.437
   71MEL    C06 1057   1.258   1.522   0.460
   71MEL    N07 1058   1.290   1.411   0.389
   71MEL    N08 1059   1.153   1.510   0.546
   71MEL    H09 1060   0.999   1.708   0.755
   71MEL    H0A 1061   0.979   1.533   0.727
   71MEL    H0B 1062   1.348   1.931   0.565
   71MEL    H0C 1063   1.450   1.853   0.443
   71MEL    H0D 1064   1.234   1.327   0.399
   71MEL    H0E 1065   1.373   1.411   0.326
   72MEL    N00 1066   1.552   0.638   0.632
   72MEL    C01 1067   1.454   0.635   0.724
   72MEL    N02 1068   1.389   0.516   0.739
   72MEL    C03 1069   1.288   0.518   0.831
   72MEL    N04 1070   1.219   0.404   0.845
   72MEL    N05 1071   1.251   0.625   0.906
   72MEL    C06 1072   1.324   0.738   0.882
   72MEL    N07 1073   1.291   0.848   0.954
   72MEL    N08 1074   1.429   0.748   0.797
   72MEL    H09 1075   1.583   0.550   0.587
   72MEL    H0A 1076   1.602   0.727   0.616
   72MEL    H0B 1077   1.234   0.327   0.777
   72MEL    H0C 1078   1.132   0.407   0.900
   72MEL    H0D 1079   1.348   0.933   0.944
   72MEL    H0E 1080   1.209   0.847   1.017
   73MEL    N00 1081   0.737   1.245   1.303
   73MEL    C01 1082   0.638   1.248   1.395
   73MEL    N02 1083   0.573   1.367   1.410
   73MEL    C03 1084   0.473   1.365   1.501
   73MEL    N04 1085   0.403   1.479   1.516
   73MEL    N05 1086   0.435   1.258   1.577
   73MEL    C06 1087   0.509   1.145   1.554
   73MEL    N07 1088   0.476   1.035   1.625
   73MEL    N08 1089   0.614   1.134   1.468
   73MEL    H09 1090   0.767   1.333   1.259
   73MEL    H0A 1091   0.788   1.156   1.287
   73MEL    H0B 1092   0.418   1.555   1.448
   73MEL    H0C 1093   0.316   1.476   1.571
   73MEL    H0D 1094   0.532   0.950   1.615
   73MEL    H0E 1095   0.393   1.036   1.688
   74MEL    N00 1096   0.214   0.261   1.382
   74MEL    C01 1097   0.313   0.258   1.290
   74MEL    N02 1098   0.377   0.139   1.275
   74MEL    C03 1099   0.478   0.141   1.183
   74MEL    N04 1100   0.548   0.027   1.169
   74MEL    N05 1101   0.516   0.248   1.109
   74MEL    C06 1102   0.442   0.361   1.132
   74MEL    N07 1103   0.476   0.472   1.060
   74MEL    N08 1104   0.337   0.373   1.218
   74MEL    H09 1105   0.183   0.174   1.427
   74MEL    H0A 1106   0.164   0.350   1.398
   74MEL    H0B 1107   0.533  -0.049   1.237
   74MEL    H0C 1108   0.634   0.030   1.115
   74MEL    H0D 1109   0.419   0.556   1.070
   74MEL    H0E 1110   0.557   0.470   0.998
   75MEL    N00 1111   0.741   1.621   1.382
   75MEL    C01 1112   0.839   1.625   1.290
   75MEL    N02 1113   0.904   1.744   1.275
   75MEL    C03 1114   1.005   1.742   1.183
   75MEL    N04 1115   1.074   1.856   1.169
   75MEL    N05 1116   1.042   1.634   1.109
   75MEL    C06 1117   0.969   1.522   1.132
   75MEL    N07 1118   1.002   1.411   1.060
   75MEL    N08 1119   0.864   1.510   1.218
   75MEL    H09 1120   0.710   1.708   1.427
   75MEL    H0A 1121   0.691   1.533   1.398
   75MEL    H0B 1122   1.059   1.931   1.237
   75MEL    H0C 1123   1.161   1.853   1.115
   75MEL    H0D 1124   0.945   1.327   1.070
   75MEL    H0E 1125   1.084   1.411   0.998
   76MEL    N00 1126   1.263   0.638   1.303
   76MEL    C01 1127   1.165   0.635   1.395
   76MEL    N02 1128   1.101   0.516   1.410
   76MEL    C03 1129   1.000   0.518   1.502
   76MEL    N04 1130   0.930   0.404   1.516
   76MEL    N05 1131   0.962   0.625   1.577
   76MEL    C06 1132   1.035   0.738   1.554
   76MEL    N07 1133   1.003   0.848   1.626
   76MEL    N08 1134   1.140   0.748   1.468
   76MEL    H09 1135   1.294   0.550   1.258
   76MEL    H0A 1136   1.314   0.727   1.287
   76MEL    H0B 1137   0.945   0.327   1.448
   76MEL    H0C 1138   0.843   0.407   1.571
   76MEL    H0D 1139   1.059   0.933   1.615
   76MEL    H0E 1140   0.920   0.847   1.688
   77MEL    N00 1141   0.447   1.245   1.974
   77MEL    C01 1142   0.348   1.248   2.066
   77MEL    N02 1143   0.284   1.367   2.081
   77MEL    C03 1144   0.184   1.365   2.173
   77MEL    N04 1145   0.113   1.479   2.187
   77MEL    N05 1146   0.145   1.258   2.247
   77MEL    C06 1147   0.219   1.145   2.224
   77MEL    N07 1148   0.186   1.035   2.296
   77MEL    N08 1149   0.324   1.134   2.138
   77MEL    H09 1150   0.478   1.333   1.929
   77MEL    H0A 1151   0.498   1.156   1.958
   77MEL    H0B 1152   0.128   1.555   2.119
   77MEL    H0C 1153   0.027   1.476   2.241
   77MEL    H0D 1154   0.242   0.950   2.286
   77MEL    H0E 1155   0.103   1.036   2.359
   78MEL    N00 1156   3.084   0.261   2.053
   78MEL    C01 1157   3.183   0.258   1.961
   78MEL    N02 1158   3.248   0.139   1.946
   78MEL    C03 1159   3.348   0.141   1.854
   78MEL    N04 1160   3.419   0.027   1.840
   78MEL    N05 1161   3.386   0.248   1.779
   78MEL    C06 1162   3.313   0.361   1.802
   78MEL    N07 1163   3.346   0.472   1.732
   78MEL    N08 1164   3.208   0.373   1.888
   78MEL    H09 1165   3.054   0.174   2.097
   78MEL    H0A 1166   3.034   0.350   2.069
   78MEL    H0B 1167   3.404  -0.049   1.908
   78MEL    H0C 1168   3.505   0.030   1.785
   78MEL    H0D 1169   3.289   0.556   1.741
   78MEL    H0E 1170   3.429   0.470   1.668
   79MEL    N00 1171   0.451   1.621   2.053
   79MEL    C01 1172   0.550   1.625   1.961
   79MEL    N02 1173   0.614   1.744   1.947
   79MEL    C03 1174   0.715   1.742   1.855
   79MEL    N04 1175   0.786   1.855   1.840
   79MEL    N05 1176   0.753   1.634   1.779
   79MEL    C06 1177   0.679   1.522   1.802
   79MEL    N07 1178   0.712   1.411   1.732
   79MEL    N08 1179   0.574   1.510   1.888
   79MEL    H09 1180   0.420   1.709   2.098
   79MEL    H0A 1181   0.401   1.533   2.069
   79MEL    H0B 1182   0.770   1.931   1.908
   79MEL    H0C 1183   0.871   1.853   1.785
   79MEL    H0D 1184   0.655   1.327   1.741
   79MEL    H0E 1185   0.795   1.411   1.668
   80MEL    N00 1186   0.974   0.638   1.974
   80MEL    C01 1187   0.875   0.635   2.066
   80MEL    N02 1188   0.811   0.516   2.081
   80MEL    C03 1189   0.710   0.518   2.173
   80MEL    N04 1190   0.640   0.404   2.187
   80MEL    N05 1191   0.672   0.625   2.247
   80MEL    C06 1192   0.745   0.738   2.224
   80MEL    N07 1193   0.713   0.848   2.296
   80MEL    N08 1194   0.851   0.748   2.138
   80MEL    H09 1195   1.005   0.550   1.929
   80MEL    H0A 1196   1.025   0.727   1.958
   80MEL    H0B 1197   0.655   0.327   2.119
   80MEL    H0C 1198   0.553   0.407   2.241
   80MEL    H0D 1199   0.769   0.933   2.286
   80MEL    H0E 1200   0.630   0.847   2.359
   81MEL    N00 1201   0.159   1.998   2.645
   81MEL    C01 1202   0.060   2.001   2.737
   81MEL    N02 1203  -0.005   2.120   2.752
   81MEL    C03 1204  -0.106   2.118   2.844
   81MEL    N04 1205  -0.176   2.232   2.858
   81MEL    N05 1206  -0.143   2.011   2.919
   81MEL    C06 1207  -0.070   1.898   2.896
   81MEL    N07 1208  -0.103   1.788   2.967
   81MEL    N08 1209   0.035   1.887   2.810
   81MEL    H09 1210   0.189   2.086   2.601
   81MEL    H0A 1211   0.209   1.909   2.629
   81MEL    H0B 1212  -0.161   2.308   2.791
   81MEL    H0C 1213  -0.263   2.229   2.913
   81MEL    H0D 1214  -0.046   1.703   2.957
   81MEL    H0E 1215  -0.186   1.788   3.030
   82MEL    N00 1216   0.792   1.015   0.039
   82MEL    C01 1217   0.891   1.012  -0.053
   82MEL    N02 1218   0.955   0.893  -0.068
   82MEL    C03 1219   1.055   0.895  -0.160
   82MEL    N04 1220   1.126   0.780  -0.174
   82MEL    N05 1221   1.093   1.002  -0.234
   82MEL    C06 1222   1.020   1.115  -0.211
   82MEL    N07 1223   1.053   1.225  -0.283
   82MEL    N08 1224   0.915   1.126  -0.125
   82MEL    H09 1225   0.761   0.927   0.085
   82MEL    H0A 1226   0.741   1.104   0.056
   82MEL    H0B 1227   1.111   0.704  -0.106
   82MEL    H0C 1228   1.212   0.783  -0.228
   82MEL    H0D 1229   0.997   1.310  -0.273
   82MEL    H0E 1230   1.136   1.224  -0.345
   83MEL    N00 1231   1.319   0.115   0.039
   83MEL    C01 1232   1.418   0.118  -0.053
   83MEL    N02 1233   1.481   0.237  -0.068
   83MEL    C03 1234   1.582   0.235  -0.160
   83MEL    N04 1235   1.653   0.349  -0.174
   83MEL    N05 1236   1.619   0.128  -0.234
   83MEL    C06 1237   1.547   0.015  -0.211
   83MEL    N07 1238   1.579  -0.095  -0.283
   83MEL    N08 1239   1.442   0.005  -0.125
   83MEL    H09 1240   1.287   0.203   0.084
   83MEL    H0A 1241   1.268   0.026   0.056
   83MEL    H0B 1242   1.638   0.426  -0.105
   83MEL    H0C 1243   1.739   0.346  -0.228
   83MEL    H0D 1244   1.523  -0.180  -0.273
   83MEL    H0E 1245   1.662  -0.094  -0.345
   84MEL    N00 1246   0.686   1.391   2.645
   84MEL    C01 1247   0.587   1.388   2.737
   84MEL    N02 1248   0.522   1.269   2.752
   84MEL    C03 1249   0.421   1.271   2.844
   84MEL    N04 1250   0.351   1.157   2.858
   84MEL    N05 1251   0.384   1.378   2.919
   84MEL    C06 1252   0.456   1.491   2.896
   84MEL    N07 1253   0.424   1.601   2.967
   84MEL    N08 1254   0.562   1.501   2.810
   84MEL    H09 1255   0.716   1.303   2.601
   84MEL    H0A 1256   0.736   1.480   2.629
   84MEL    H0B 1257   0.367   1.080   2.791
   84MEL    H0C 1258   0.265   1.160   2.913
   84MEL    H0D 1259   0.481   1.685   2.957
   84MEL    H0E 1260   0.341   1.600   3.030
   85MEL    N00 1261   1.026   1.998   0.632
   85MEL    C01 1262   0.927   2.001   0.724
   85MEL    N02 1263   0.862   2.120   0.739
   85MEL    C03 1264   0.762   2.118   0.831
   85MEL    N04 1265   0.692   2.232   0.845
   85MEL    N05 1266   0.724   2.011   0.906
   85MEL    C06 1267   0.798   1.898   0.882
   85MEL    N07 1268   0.764   1.788   0.954
   85MEL    N08 1269   0.903   1.887   0.797
   85MEL    H09 1270   1.056   2.086   0.588
   85MEL    H0A 1271   1.076   1.909   0.616
   85MEL    H0B 1272   0.707   2.308   0.776
   85MEL    H0C 1273   0.605   2.229   0.900
   85MEL    H0D 1274   0.821   1.703   0.944
   85MEL    H0E 1275   0.682   1.788   1.017
   86MEL    N00 1276   0.503   1.015   0.711
   86MEL    C01 1277   0.602   1.012   0.619
   86MEL    N02 1278   0.666   0.893   0.604
   86MEL    C03 1279   0.766   0.895   0.512
   86MEL    N04 1280   0.837   0.780   0.498
   86MEL    N05 1281   0.805   1.002   0.437
   86MEL    C06 1282   0.731   1.115   0.460
   86MEL    N07 1283   0.764   1.225   0.389
   86MEL    N08 1284   0.626   1.126   0.546
   86MEL    H09 1285   0.473   0.927   0.756
   86MEL    H0A 1286   0.452   1.104   0.727
   86MEL    H0B 1287   0.822   0.704   0.565
   86MEL    H0C 1288   0.923   0.783   0.443
   86MEL    H0D 1289   0.708   1.310   0.399
   86MEL    H0E 1290   0.847   1.224   0.326
   87MEL    N00 1291   1.030   0.115   0.711
   87MEL    C01 1292   1.128   0.118   0.619
   87MEL    N02 1293   1.192   0.237   0.604
   87MEL    C03 1294   1.293   0.235   0.512
   87MEL    N04 1295   1.363   0.349   0.498
   87MEL    N05 1296   1.331   0.128   0.437
   87MEL    C06 1297   1.258   0.015   0.460
   87MEL    N07 1298   1.290  -0.095   0.389
   87MEL    N08 1299   1.153   0.005   0.546
   87MEL    H09 1300   0.999   0.203   0.755
   87MEL    H0A 1301   0.979   0.026   0.727
   87MEL    H0B 1302   1.348   0.426   0.565
   87MEL    H0C 1303   1.450   0.346   0.443
   87MEL    H0D 1304   1.234  -0.180   0.399
   87MEL    H0E 1305   1.373  -0.094   0.326
   88MEL    N00 1306   1.552   1.391   0.632
   88MEL    C01 1307   1.454   1.388   0.724
   88MEL    N02 1308   1.389   1.268   0.739
   88MEL    C03 1309   1.288   1.271   0.831
   88MEL    N04 1310   1.219   1.157   0.845
   88MEL    N05 1311   1.251   1.378   0.906
   88MEL    C06 1312   1.324   1.491   0.882
   88MEL    N07 1313   1.291   1.601   0.954
   88MEL    N08 1314   1.429   1.501   0.797
   88MEL    H09 1315   1.583   1.303   0.587
   88MEL    H0A 1316   1.602   1.480   0.616
   88MEL    H0B 1317   1.234   1.080   0.777
   88MEL    H0C 1318   1.132   1.159   0.900
   88MEL    H0D 1319   1.348   1.685   0.944
   88MEL    H0E 1320   1.209   1.600   1.017
   89MEL    N00 1321   0.737   1.998   1.303
   89MEL    C01 1322   0.638   2.001   1.395
   89MEL    N02 1323   0.573   2.120   1.410
   89MEL    C03 1324   0.473   2.118   1.501
   89MEL    N04 1325   0.403   2.232   1.516
   89MEL    N05 1326   0.435   2.010   1.577
   89MEL    C06 1327   0.509   1.898   1.554
   89MEL    N07 1328   0.476   1.788   1.625
   89MEL    N08 1329   0.614   1.887   1.468
   89MEL    H09 1330   0.767   2.086   1.259
   89MEL    H0A 1331   0.788   1.909   1.287
   89MEL    H0B 1332   0.418   2.308   1.448
   89MEL    H0C 1333   0.316   2.229   1.571
   89MEL    H0D 1334   0.532   1.703   1.614
   89MEL    H0E 1335   0.393   1.788   1.688
   90MEL    N00 1336   0.214   1.015   1.382
   90MEL    C01 1337   0.313   1.012   1.290
   90MEL    N02 1338   0.377   0.893   1.275
   90MEL    C03 1339   0.478   0.895   1.183
   90MEL    N04 1340   0.548   0.780   1.169
   90MEL    N05 1341   0.516   1.002   1.109
   90MEL    C06 1342   0.442   1.115   1.132
   90MEL    N07 1343   0.476   1.225   1.060
   90MEL    N08 1344   0.337   1.126   1.218
   90MEL    H09 1345   0.183   0.927   1.427
   90MEL    H0A 1346   0.164   1.104   1.398
   90MEL    H0B 1347   0.533   0.704   1.237
   90MEL    H0C 1348   0.634   0.783   1.115
   90MEL    H0D 1349   0.419   1.310   1.070
   90MEL    H0E 1350   0.557   1.224   0.998
   91MEL    N00 1351   0.741   0.115   1.382
   91MEL    C01 1352   0.839   0.118   1.290
   91MEL    N02 1353   0.904   0.237   1.275
   91MEL    C03 1354   1.005   0.235   1.183
   91MEL    N04 1355   1.074   0.349   1.169
   91MEL    N05 1356   1.042   0.128   1.109
   91MEL    C06 1357   0.969   0.015   1.132
   91MEL    N07 1358   1.002  -0.095   1.060
   91MEL    N08 1359   0.864   0.005   1.218
   91MEL    H09 1360   0.710   0.203   1.427
   91MEL    H0A 1361   0.691   0.026   1.398
   91MEL    H0B 1362   1.059   0.426   1.237
   91MEL    H0C 1363   1.161   0.346   1.115
   91MEL    H0D 1364   0.945  -0.180   1.070
   91MEL    H0E 1365   1.084  -0.094   0.998
   92MEL    N00 1366   1.263   1.391   1.303
   92MEL    C01 1367   1.165   1.388   1.395
   92MEL    N02 1368   1.101   1.268   1.410
   92MEL    C03 1369   1.000   1.271   1.502
   92MEL    N04 1370   0.930   1.157   1.516
   92MEL    N05 1371   0.962   1.378   1.577
   92MEL    C06 1372   1.035   1.491   1.554
   92MEL    N07 1373   1.003   1.601   1.625
   92MEL    N08 1374   1.140   1.501   1.468
   92MEL    H09 1375   1.294   1.303   1.258
   92MEL    H0A 1376   1.314   1.480   1.287
   92MEL    H0B 1377   0.945   1.080   1.448
   92MEL    H0C 1378   0.843   1.159   1.571
   92MEL    H0D 1379   1.059   1.685   1.615
   92MEL    H0E 1380   0.920   1.600   1.688
   93MEL    N00 1381   0.447   1.998   1.974
   93MEL    C01 1382   0.348   2.001   2.066
   93MEL    N02 1383   0.284   2.120   2.081
   93MEL    C03 1384   0.184   2.118   2.173
   93MEL    N04 1385   0.113   2.232   2.187
   93MEL    N05 1386   0.145   2.011   2.247
   93MEL    C06 1387   0.219   1.898   2.224
   93MEL    N07 1388   0.186   1.788   2.296
   93MEL    N08 1389   0.324   1.887   2.138
   93MEL    H09 1390   0.478   2.086   1.929
   93MEL    H0A 1391   0.498   1.909   1.958
   93MEL    H0B 1392   0.128   2.308   2.119
   93MEL    H0C 1393   0.026   2.229   2.241
   93MEL    H0D 1394   0.242   1.703   2.286
   93MEL    H0E 1395   0.103   1.788   2.359
   94MEL    N00 1396   3.084   1.015   2.053
   94MEL    C01 1397   3.183   1.012   1.961
   94MEL    N02 1398   3.248   0.893   1.946
   94MEL    C03 1399   3.348   0.895   1.854
   94MEL    N04 1400   3.419   0.780   1.840
   94MEL    N05 1401   3.386   1.002   1.779
   94MEL    C06 1402   3.313   1.115   1.802
   94MEL    N07 1403   3.346   1.225   1.732
   94MEL    N08 1404   3.208   1.125   1.888
   94MEL    H09 1405   3.054   0.927   2.098
   94MEL    H0A 1406   3.034   1.104   2.069
   94MEL    H0B 1407   3.404   0.704   1.908
   94MEL    H0C 1408   3.504   0.783   1.785
   94MEL    H0D 1409   3.289   1.310   1.741
   94MEL    H0E 1410   3.429   1.224   1.668
   95MEL    N00 1411   0.451   0.115   2.053
   95MEL    C01 1412   0.550   0.118   1.961
   95MEL    N02 1413   0.614   0.237   1.947
   95MEL    C03 1414   0.715   0.235   1.855
   95MEL    N04 1415   0.786   0.349   1.840
   95MEL    N05 1416   0.753   0.128   1.779
   95MEL    C06 1417   0.679   0.015   1.802
   95MEL    N07 1418   0.712  -0.095   1.732
   95MEL    N08 1419   0.574   0.005   1.889
   95MEL    H09 1420   0.420   0.203   2.097
   95MEL    H0A 1421   0.401   0.026   2.069
   95MEL    H0B 1422   0.770   0.426   1.908
   95MEL    H0C 1423   0.871   0.346   1.785
   95MEL    H0D 1424   0.655  -0.179   1.741
   95MEL    H0E 1425   0.795  -0.094   1.668
   96MEL    N00 1426   0.974   1.391   1.974
   96MEL    C01 1427   0.875   1.388   2.066
   96MEL    N02 1428   0.811   1.269   2.081
   96MEL    C03 1429   0.710   1.271   2.173
   96MEL    N04 1430   0.640   1.157   2.187
   96MEL    N05 1431   0.672   1.378   2.247
   96MEL    C06 1432   0.745   1.491   2.224
   96MEL    N07 1433   0.713   1.601   2.296
   96MEL    N08 1434   0.851   1.501   2.138
   96MEL    H09 1435   1.005   1.303   1.929
   96MEL    H0A 1436   1.025   1.480   1.958
   96MEL    H0B 1437   0.655   1.080   2.119
   96MEL    H0C 1438   0.553   1.160   2.241
   96MEL    H0D 1439   0.769   1.685   2.286
   96MEL    H0E 1440   0.630   1.600   2.359
   97MEL    N00 1441   1.213   0.492   2.645
   97MEL    C01 1442   1.114   0.495   2.737
   97MEL    N02 1443   1.049   0.614   2.752
   97MEL    C03 1444   0.948   0.612   2.844
   97MEL    N04 1445   0.878   0.726   2.858
   97MEL    N05 1446   0.911   0.505   2.919
   97MEL    C06 1447   0.983   0.392   2.896
   97MEL    N07 1448   0.951   0.282   2.967
   97MEL    N08 1449   1.089   0.381   2.810
   97MEL    H09 1450   1.243   0.580   2.601
   97MEL    H0A 1451   1.263   0.403   2.629
   97MEL    H0B 1452   0.894   0.803   2.790
   97MEL    H0C 1453   0.792   0.723   2.913
   97MEL    H0D 1454   1.008   0.197   2.957
   97MEL    H0E 1455   0.868   0.283   3.030
   98MEL    N00 1456   1.846   1.768   0.039
   98MEL    C01 1457   1.945   1.765  -0.053
   98MEL    N02 1458   2.008   1.645  -0.068
   98MEL    C03 1459   2.109   1.648  -0.160
   98MEL    N04 1460   2.180   1.534  -0.174
   98MEL    N05 1461   2.148   1.755  -0.234
   98MEL    C06 1462   2.074   1.868  -0.211
   98MEL    N07 1463   2.107   1.978  -0.283
   98MEL    N08 1464   1.969   1.878  -0.125
   98MEL    H09 1465   1.814   1.680   0.084
   98MEL    H0A 1466   1.795   1.857   0.056
   98MEL    H0B 1467   2.165   1.457  -0.106
   98MEL    H0C 1468   2.266   1.536  -0.228
   98MEL    H0D 1469   2.051   2.062  -0.273
   98MEL    H0E 1470   2.189   1.977  -0.345
   99MEL    N00 1471   2.373   0.868   0.039
   99MEL    C01 1472   2.471   0.871  -0.053
   99MEL    N02 1473   2.535   0.990  -0.068
   99MEL    C03 1474   2.636   0.988  -0.160
   99MEL    N04 1475   2.706   1.103  -0.174
   99MEL    N05 1476   2.674   0.880  -0.234
   99MEL    C06 1477   2.601   0.768  -0.211
   99MEL    N07 1478   2.633   0.658  -0.283
   99MEL    N08 1479   2.496   0.757  -0.125
   99MEL    H09 1480   2.341   0.956   0.085
   99MEL    H0A 1481   2.322   0.779   0.056
   99MEL    H0B 1482   2.691   1.178  -0.106
   99MEL    H0C 1483   2.793   1.100  -0.228
   99MEL    H0D 1484   2.577   0.573  -0.273
   99MEL    H0E 1485   2.716   0.658  -0.345
  100MEL    N00 1486   1.739   2.144   2.645
  100MEL    C01 1487   1.640   2.140   2.737
  100MEL    N02 1488   1.576   2.021   2.752
  100MEL    C03 1489   1.475   2.023   2.844
  100MEL    N04 1490   1.404   1.909   2.858
  100MEL    N05 1491   1.437   2.131   2.920
  100MEL    C06 1492   1.510   2.243   2.896
  100MEL    N07 1493   1.478   2.353   2.967
  100MEL    N08 1494   1.615   2.255   2.810
  100MEL    H09 1495   1.770   2.057   2.601
  100MEL    H0A 1496   1.789   2.232   2.629
  100MEL    H0B 1497   1.420   1.834   2.791
  100MEL    H0C 1498   1.319   1.912   2.913
  100MEL    H0D 1499   1.535   2.438   2.957
  100MEL    H0E 1500   1.395   2.353   3.030
  101MEL    N00 1501   2.079   0.492   0.632
  101MEL    C01 1502   1.980   0.495   0.724
  101MEL    N02 1503   1.915   0.614   0.739
  101MEL    C03 1504   1.815   0.612   0.831
  101MEL    N04 1505   1.745   0.726   0.845
  101MEL    N05 1506   1.777   0.505   0.906
  101MEL    C06 1507   1.851   0.392   0.882
  101MEL    N07 1508   1.817   0.282   0.954
  101MEL    N08 1509   1.956   0.381   0.797
  101MEL    H09 1510   2.109   0.580   0.588
  101MEL    H0A 1511   2.129   0.403   0.616
  101MEL    H0B 1512   1.760   0.803   0.776
  101MEL    H0C 1513   1.659   0.723   0.900
  101MEL    H0D 1514   1.874   0.197   0.944
  101MEL    H0E 1515   1.735   0.283   1.017
  102MEL    N00 1516   1.556   1.768   0.711
  102MEL    C01 1517   1.655   1.765   0.619
  102MEL    N02 1518   1.719   1.645   0.604
  102MEL    C03 1519   1.819   1.648   0.512
  102MEL    N04 1520   1.890   1.534   0.498
  102MEL    N05 1521   1.858   1.755   0.437
  102MEL    C06 1522   1.784   1.868   0.460
  102MEL    N07 1523   1.817   1.977   0.389
  102MEL    N08 1524   1.679   1.878   0.546
  102MEL    H09 1525   1.526   1.680   0.755
  102MEL    H0A 1526   1.505   1.857   0.727
  102MEL    H0B 1527   1.875   1.457   0.565
  102MEL    H0C 1528   1.977   1.536   0.443
  102MEL    H0D 1529   1.761   2.062   0.399
  102MEL    H0E 1530   1.900   1.977   0.326
  103MEL    N00 1531   2.083   0.868   0.711
  103MEL    C01 1532   2.182   0.871   0.619
  103MEL    N02 1533   2.245   0.990   0.604
  103MEL    C03 1534   2.346   0.988   0.512
  103MEL    N04 1535   2.417   1.103   0.498
  103MEL    N05 1536   2.385   0.880   0.437
  103MEL    C06 1537   2.311   0.768   0.460
  103MEL    N07 1538   2.343   0.658   0.389
  103MEL    N08 1539   2.206   0.757   0.546
  103MEL    H09 1540   2.052   0.956   0.756
  103MEL    H0A 1541   2.032   0.779   0.727
  103MEL    H0B 1542   2.402   1.178   0.566
  103MEL    H0C 1543   2.503   1.100   0.443
  103MEL    H0D 1544   2.287   0.573   0.399
  103MEL    H0E 1545   2.426   0.658   0.326
  104MEL    N00 1546   2.606   2.144   0.632
  104MEL    C01 1547   2.507   2.140   0.724
  104MEL    N02 1548   2.442   2.021   0.739
  104MEL    C03 1549   2.341   2.023   0.831
  104MEL    N04 1550   2.272   1.910   0.845
  104MEL    N05 1551   2.304   2.131   0.906
  104MEL    C06 1552   2.377   2.243   0.882
  104MEL    N07 1553   2.344   2.353   0.954
  104MEL    N08 1554   2.483   2.255   0.797
  104MEL    H09 1555   2.636   2.057   0.588
  104MEL    H0A 1556   2.656   2.232   0.616
  104MEL    H0B 1557   2.287   1.834   0.776
  104MEL    H0C 1558   2.185   1.912   0.900
  104MEL    H0D 1559   2.401   2.438   0.944
  104MEL    H0E 1560   2.262   2.353   1.017
  105MEL    N00 1561   1.790   0.492   1.303
  105MEL    C01 1562   1.691   0.495   1.395
  105MEL    N02 1563   1.627   0.614   1.410
  105MEL    C03 1564   1.527   0.612   1.502
  105MEL    N04 1565   1.456   0.726   1.516
  105MEL    N05 1566   1.488   0.505   1.577
  105MEL    C06 1567   1.562   0.392   1.554
  105MEL    N07 1568   1.529   0.282   1.625
  105MEL    N08 1569   1.667   0.382   1.467
  105MEL    H09 1570   1.820   0.580   1.259
  105MEL    H0A 1571   1.841   0.403   1.287
  105MEL    H0B 1572   1.471   0.803   1.448
  105MEL    H0C 1573   1.369   0.723   1.571
  105MEL    H0D 1574   1.585   0.197   1.614
  105MEL    H0E 1575   1.446   0.283   1.688
  106MEL    N00 1576   1.267   1.768   1.382
  106MEL    C01 1577   1.366   1.765   1.290
  106MEL    N02 1578   1.431   1.645   1.275
  106MEL    C03 1579   1.531   1.648   1.183
  106MEL    N04 1580   1.601   1.534   1.169
  106MEL    N05 1581   1.569   1.755   1.109
  106MEL    C06 1582   1.495   1.868   1.132
  106MEL    N07 1583   1.529   1.978   1.060
  106MEL    N08 1584   1.390   1.878   1.218
  106MEL    H09 1585   1.237   1.680   1.427
  106MEL    H0A 1586   1.217   1.857   1.398
  106MEL    H0B 1587   1.586   1.457   1.237
  106MEL    H0C 1588   1.688   1.536   1.115
  106MEL    H0D 1589   1.472   2.062   1.070
  106MEL    H0E 1590   1.611   1.977   0.998
  107MEL    N00 1591   1.794   0.868   1.382
  107MEL    C01 1592   1.892   0.871   1.290
  107MEL    N02 1593   1.957   0.990   1.275
  107MEL    C03 1594   2.058   0.988   1.183
  107MEL    N04 1595   2.127   1.103   1.169
  107MEL    N05 1596   2.095   0.880   1.109
  107MEL    C06 1597   2.022   0.768   1.132
  107MEL    N07 1598   2.055   0.658   1.060
  107MEL    N08 1599   1.917   0.757   1.218
  107MEL    H09 1600   1.763   0.956   1.428
  107MEL    H0A 1601   1.744   0.779   1.398
  107MEL    H0B 1602   2.112   1.178   1.237
  107MEL    H0C 1603   2.214   1.100   1.115
  107MEL    H0D 1604   1.998   0.573   1.070
  107MEL    H0E 1605   2.137   0.658   0.998
  108MEL    N00 1606   2.317   2.143   1.303
  108MEL    C01 1607   2.218   2.140   1.395
  108MEL    N02 1608   2.154   2.021   1.410
  108MEL    C03 1609   2.053   2.023   1.502
  108MEL    N04 1610   1.983   1.909   1.516
  108MEL    N05 1611   2.015   2.131   1.577
  108MEL    C06 1612   2.088   2.243   1.554
  108MEL    N07 1613   2.056   2.353   1.625
  108MEL    N08 1614   2.194   2.255   1.467
  108MEL    H09 1615   2.347   2.056   1.258
  108MEL    H0A 1616   2.367   2.232   1.287
  108MEL    H0B 1617   1.998   1.834   1.448
  108MEL    H0C 1618   1.896   1.912   1.571
  108MEL    H0D 1619   2.112   2.438   1.614
  108MEL    H0E 1620   1.973   2.353   1.688
  109MEL    N00 1621   1.501   0.492   1.974
  109MEL    C01 1622   1.402   0.495   2.066
  109MEL    N02 1623   1.338   0.614   2.081
  109MEL    C03 1624   1.238   0.612   2.173
  109MEL    N04 1625   1.167   0.726   2.187
  109MEL    N05 1626   1.199   0.505   2.247
  109MEL    C06 1627   1.273   0.392   2.224
  109MEL    N07 1628   1.240   0.282   2.296
  109MEL    N08 1629   1.378   0.381   2.138
  109MEL    H09 1630   1.532   0.580   1.929
  109MEL    H0A 1631   1.552   0.403   1.958
  109MEL    H0B 1632   1.182   0.803   2.118
  109MEL    H0C 1633   1.080   0.723   2.241
  109MEL    H0D 1634   1.296   0.197   2.286
  109MEL    H0E 1635   1.157   0.283   2.359
  110MEL    N00 1636   0.978   1.768   2.053
  110MEL    C01 1637   1.077   1.765   1.961
  110MEL    N02 1638   1.141   1.645   1.946
  110MEL    C03 1639   1.242   1.648   1.854
  110MEL    N04 1640   1.313   1.534   1.840
  110MEL    N05 1641   1.280   1.755   1.779
  110MEL    C06 1642   1.207   1.868   1.802
  110MEL    N07 1643   1.240   1.978   1.732
  110MEL    N08 1644   1.102   1.878   1.889
  110MEL    H09 1645   0.947   1.680   2.097
  110MEL    H0A 1646   0.928   1.857   2.069
  110MEL    H0B 1647   1.297   1.457   1.908
  110MEL    H0C 1648   1.398   1.536   1.785
  110MEL    H0D 1649   1.183   2.062   1.742
  110MEL    H0E 1650   1.323   1.977   1.668
  111MEL    N00 1651   1.505   0.868   2.053
  111MEL    C01 1652   1.603   0.871   1.961
  111MEL    N02 1653   1.668   0.990   1.947
  111MEL    C03 1654   1.769   0.988   1.854
  111MEL    N04 1655   1.839   1.103   1.840
  111MEL    N05 1656   1.806   0.880   1.779
  111MEL    C06 1657   1.734   0.768   1.802
  111MEL    N07 1658   1.766   0.658   1.732
  111MEL    N08 1659   1.629   0.757   1.889
  111MEL    H09 1660   1.474   0.956   2.098
  111MEL    H0A 1661   1.455   0.779   2.069
  111MEL    H0B 1662   1.823   1.178   1.907
  111MEL    H0C 1663   1.925   1.100   1.785
  111MEL    H0D 1664   1.709   0.573   1.742
  111MEL    H0E 1665   1.849   0.658   1.668
  112MEL    N00 1666   2.027   2.143   1.974
  112MEL    C01 1667   1.929   2.140   2.066
  112MEL    N02 1668   1.865   2.021   2.081
  112MEL    C03 1669   1.764   2.023   2.173
  112MEL    N04 1670   1.694   1.909   2.187
  112MEL    N05 1671   1.726   2.131   2.247
  112MEL    C06 1672   1.799   2.243   2.224
  112MEL    N07 1673   1.767   2.353   2.296
  112MEL    N08 1674   1.904   2.255   2.138
  112MEL    H09 1675   2.059   2.057   1.929
  112MEL    H0A 1676   2.078   2.232   1.958
  112MEL    H0B 1677   1.709   1.834   2.119
  112MEL    H0C 1678   1.607   1.912   2.241
  112MEL    H0D 1679   1.823   2.438   2.286
  112MEL    H0E 1680   1.684   2.353   2.359
  113MEL    N00 1681   1.213   1.245   2.645
  113MEL    C01 1682   1.114   1.248   2.737
  113MEL    N02 1683   1.049   1.367   2.752
  113MEL    C03 1684   0.948   1.365   2.844
  113MEL    N04 1685   0.878   1.479   2.858
  113MEL    N05 1686   0.911   1.258   2.919
  113MEL    C06 1687   0.983   1.145   2.896
  113MEL    N07 1688   0.951   1.035   2.967
  113MEL    N08 1689   1.089   1.134   2.810
  113MEL    H09 1690   1.243   1.333   2.601
  113MEL    H0A 1691   1.263   1.156   2.629
  113MEL    H0B 1692   0.894   1.555   2.790
  113MEL    H0C 1693   0.792   1.476   2.913
  113MEL    H0D 1694   1.008   0.950   2.957
  113MEL    H0E 1695   0.868   1.036   3.030
  114MEL    N00 1696   1.846   0.261   0.039
  114MEL    C01 1697   1.945   0.258  -0.053
  114MEL    N02 1698   2.008   0.139  -0.068
  114MEL    C03 1699   2.109   0.141  -0.160
  114MEL    N04 1700   2.180   0.027  -0.174
  114MEL    N05 1701   2.148   0.248  -0.234
  114MEL    C06 1702   2.074   0.361  -0.211
  114MEL    N07 1703   2.107   0.472  -0.283
  114MEL    N08 1704   1.969   0.373  -0.125
  114MEL    H09 1705   1.814   0.174   0.084
  114MEL    H0A 1706   1.795   0.350   0.056
  114MEL    H0B 1707   2.165  -0.049  -0.105
  114MEL    H0C 1708   2.266   0.030  -0.228
  114MEL    H0D 1709   2.051   0.556  -0.273
  114MEL    H0E 1710   2.189   0.470  -0.345
  115MEL    N00 1711   2.373   1.621   0.039
  115MEL    C01 1712   2.471   1.625  -0.053
  115MEL    N02 1713   2.535   1.744  -0.068
  115MEL    C03 1714   2.636   1.742  -0.160
  115MEL    N04 1715   2.706   1.856  -0.174
  115MEL    N05 1716   2.674   1.634  -0.234
  115MEL    C06 1717   2.601   1.522  -0.211
  115MEL    N07 1718   2.633   1.411  -0.283
  115MEL    N08 1719   2.496   1.510  -0.125
  115MEL    H09 1720   2.341   1.708   0.084
  115MEL    H0A 1721   2.322   1.533   0.056
  115MEL    H0B 1722   2.691   1.931  -0.106
  115MEL    H0C 1723   2.793   1.853  -0.228
  115MEL    H0D 1724   2.577   1.327  -0.273
  115MEL    H0E 1725   2.716   1.411  -0.345
  116MEL    N00 1726   1.739   0.638   2.645
  116MEL    C01 1727   1.640   0.635   2.737
  116MEL    N02 1728   1.576   0.516   2.752
  116MEL    C03 1729   1.475   0.518   2.844
  116MEL    N04 1730   1.404   0.404   2.858
  116MEL    N05 1731   1.438   0.625   2.920
  116MEL    C06 1732   1.510   0.738   2.896
  116MEL    N07 1733   1.478   0.848   2.967
  116MEL    N08 1734   1.615   0.748   2.810
  116MEL    H09 1735   1.770   0.550   2.601
  116MEL    H0A 1736   1.789   0.727   2.629
  116MEL    H0B 1737   1.420   0.327   2.791
  116MEL    H0C 1738   1.319   0.406   2.913
  116MEL    H0D 1739   1.534   0.932   2.957
  116MEL    H0E 1740   1.395   0.847   3.030
  117MEL    N00 1741   2.079   1.245   0.632
  117MEL    C01 1742   1.980   1.248   0.724
  117MEL    N02 1743   1.915   1.367   0.739
  117MEL    C03 1744   1.815   1.365   0.831
  117MEL    N04 1745   1.745   1.479   0.845
  117MEL    N05 1746   1.777   1.258   0.906
  117MEL    C06 1747   1.851   1.145   0.882
  117MEL    N07 1748   1.817   1.035   0.954
  117MEL    N08 1749   1.956   1.134   0.797
  117MEL    H09 1750   2.109   1.333   0.588
  117MEL    H0A 1751   2.129   1.156   0.616
  117MEL    H0B 1752   1.760   1.556   0.776
  117MEL    H0C 1753   1.659   1.476   0.900
  117MEL    H0D 1754   1.874   0.950   0.944
  117MEL    H0E 1755   1.736   1.036   1.017
  118MEL    N00 1756   1.556   0.261   0.711
  118MEL    C01 1757   1.655   0.258   0.619
  118MEL    N02 1758   1.719   0.139   0.604
  118MEL    C03 1759   1.819   0.141   0.512
  118MEL    N04 1760   1.890   0.027   0.498
  118MEL    N05 1761   1.858   0.248   0.437
  118MEL    C06 1762   1.784   0.361   0.460
  118MEL    N07 1763   1.817   0.472   0.389
  118MEL    N08 1764   1.679   0.373   0.546
  118MEL    H09 1765   1.526   0.174   0.755
  118MEL    H0A 1766   1.505   0.350   0.727
  118MEL    H0B 1767   1.875  -0.049   0.565
  118MEL    H0C 1768   1.977   0.030   0.443
  118MEL    H0D 1769   1.761   0.556   0.399
  118MEL    H0E 1770   1.900   0.470   0.326
  119MEL    N00 1771   2.083   1.621   0.711
  119MEL    C01 1772   2.182   1.625   0.619
  119MEL    N02 1773   2.245   1.744   0.604
  119MEL    C03 1774   2.346   1.742   0.512
  119MEL    N04 1775   2.417   1.855   0.498
  119MEL    N05 1776   2.385   1.634   0.437
  119MEL    C06 1777   2.311   1.522   0.460
  119MEL    N07 1778   2.343   1.411   0.389
  119MEL    N08 1779   2.206   1.510   0.546
  119MEL    H09 1780   2.052   1.708   0.755
  119MEL    H0A 1781   2.032   1.533   0.727
  119MEL    H0B 1782   2.402   1.931   0.566
  119MEL    H0C 1783   2.503   1.853   0.443
  119MEL    H0D 1784   2.287   1.327   0.399
  119MEL    H0E 1785   2.426   1.411   0.326
  120MEL    N00 1786   2.606   0.638   0.632
  120MEL    C01 1787   2.507   0.635   0.724
  120MEL    N02 1788   2.442   0.516   0.739
  120MEL    C03 1789   2.341   0.518   0.831
  120MEL    N04 1790   2.272   0.404   0.845
  120MEL    N05 1791   2.304   0.625   0.906
  120MEL    C06 1792   2.377   0.738   0.882
  120MEL    N07 1793   2.344   0.848   0.954
  120MEL    N08 1794   2.483   0.748   0.797
  120MEL    H09 1795   2.636   0.550   0.588
  120MEL    H0A 1796   2.656   0.727   0.616
  120MEL    H0B 1797   2.287   0.327   0.776
  120MEL    H0C 1798   2.185   0.407   0.900
  120MEL    H0D 1799   2.401   0.933   0.944
  120MEL    H0E 1800   2.262   0.847   1.017
  121MEL    N00 1801   1.790   1.245   1.303
  121MEL    C01 1802   1.691   1.248   1.395
  121MEL    N02 1803   1.627   1.367   1.410
  121MEL    C03 1804   1.527   1.365   1.502
  121MEL    N04 1805   1.456   1.479   1.516
  121MEL    N05 1806   1.488   1.258   1.577
  121MEL    C06 1807   1.562   1.145   1.554
  121MEL    N07 1808   1.529   1.035   1.625
  121MEL    N08 1809   1.667   1.134   1.467
  121MEL    H09 1810   1.820   1.333   1.259
  121MEL    H0A 1811   1.841   1.156   1.287
  121MEL    H0B 1812   1.471   1.556   1.448
  121MEL    H0C 1813   1.369   1.476   1.571
  121MEL    H0D 1814   1.585   0.950   1.614
  121MEL    H0E 1815   1.446   1.036   1.688
  122MEL    N00 1816   1.267   0.261   1.382
  122MEL    C01 1817   1.366   0.258   1.290
  122MEL    N02 1818   1.431   0.139   1.275
  122MEL    C03 1819   1.531   0.141   1.183
  122MEL    N04 1820   1.601   0.027   1.169
  122MEL    N05 1821   1.569   0.248   1.109
  122MEL    C06 1822   1.495   0.361   1.132
  122MEL    N07 1823   1.529   0.472   1.060
  122MEL    N08 1824   1.390   0.373   1.218
  122MEL    H09 1825   1.237   0.174   1.427
  122MEL    H0A 1826   1.217   0.350   1.398
  122MEL    H0B 1827   1.586  -0.049   1.237
  122MEL    H0C 1828   1.688   0.030   1.115
  122MEL    H0D 1829   1.472   0.556   1.070
  122MEL    H0E 1830   1.611   0.470   0.998
  123MEL    N00 1831   1.794   1.621   1.382
  123MEL    C01 1832   1.892   1.625   1.290
  123MEL    N02 1833   1.957   1.744   1.275
  123MEL    C03 1834   2.058   1.742   1.183
  123MEL    N04 1835   2.127   1.856   1.169
  123MEL    N05 1836   2.095   1.634   1.109
  123MEL    C06 1837   2.022   1.522   1.132
  123MEL    N07 1838   2.055   1.411   1.060
  123MEL    N08 1839   1.917   1.510   1.218
  123MEL    H09 1840   1.763   1.709   1.427
  123MEL    H0A 1841   1.744   1.533   1.398
  123MEL    H0B 1842   2.112   1.931   1.237
  123MEL    H0C 1843   2.214   1.853   1.115
  123MEL    H0D 1844   1.998   1.327   1.070
  123MEL    H0E 1845   2.137   1.411   0.998
  124MEL    N00 1846   2.316   0.638   1.303
  124MEL    C01 1847   2.218   0.635   1.395
  124MEL    N02 1848   2.154   0.516   1.410
  124MEL    C03 1849   2.053   0.518   1.502
  124MEL    N04 1850   1.983   0.404   1.516
  124MEL    N05 1851   2.015   0.625   1.577
  124MEL    C06 1852   2.088   0.738   1.554
  124MEL    N07 1853   2.056   0.848   1.625
  124MEL    N08 1854   2.194   0.748   1.467
  124MEL    H09 1855   2.347   0.550   1.258
  124MEL    H0A 1856   2.367   0.727   1.287
  124MEL    H0B 1857   1.998   0.327   1.448
  124MEL    H0C 1858   1.896   0.407   1.571
  124MEL    H0D 1859   2.112   0.933   1.614
  124MEL    H0E 1860   1.973   0.847   1.688
  125MEL    N00 1861   1.501   1.245   1.974
  125MEL    C01 1862   1.402   1.248   2.066
  125MEL    N02 1863   1.338   1.367   2.081
  125MEL    C03 1864   1.238   1.365   2.173
  125MEL    N04 1865   1.167   1.479   2.187
  125MEL    N05 1866   1.199   1.258   2.247
  125MEL    C06 1867   1.273   1.145   2.224
  125MEL    N07 1868   1.240   1.035   2.296
  125MEL    N08 1869   1.378   1.134   2.138
  125MEL    H09 1870   1.532   1.333   1.929
  125MEL    H0A 1871   1.552   1.156   1.958
  125MEL    H0B 1872   1.182   1.555   2.118
  125MEL    H0C 1873   1.080   1.476   2.241
  125MEL    H0D 1874   1.296   0.950   2.286
  125MEL    H0E 1875   1.157   1.036   2.359
  126MEL    N00 1876   0.978   0.261   2.053
  126MEL    C01 1877   1.077   0.258   1.961
  126MEL    N02 1878   1.141   0.139   1.946
  126MEL    C03 1879   1.242   0.141   1.854
  126MEL    N04 1880   1.313   0.027   1.840
  126MEL    N05 1881   1.280   0.248   1.779
  126MEL    C06 1882   1.207   0.361   1.802
  126MEL    N07 1883   1.240   0.472   1.732
  126MEL    N08 1884   1.102   0.373   1.888
  126MEL    H09 1885   0.947   0.174   2.097
  126MEL    H0A 1886   0.928   0.350   2.069
  126MEL    H0B 1887   1.297  -0.049   1.908
  126MEL    H0C 1888   1.398   0.030   1.785
  126MEL    H0D 1889   1.183   0.556   1.742
  126MEL    H0E 1890   1.323   0.470   1.668
  127MEL    N00 1891   1.505   1.621   2.053
  127MEL    C01 1892   1.603   1.625   1.961
  127MEL    N02 1893   1.668   1.744   1.946
  127MEL    C03 1894   1.769   1.742   1.854
  127MEL    N04 1895   1.839   1.856   1.840
  127MEL    N05 1896   1.806   1.634   1.779
  127MEL    C06 1897   1.734   1.522   1.802
  127MEL    N07 1898   1.766   1.411   1.732
  127MEL    N08 1899   1.628   1.510   1.889
  127MEL    H09 1900   1.474   1.709   2.098
  127MEL    H0A 1901   1.455   1.533   2.069
  127MEL    H0B 1902   1.823   1.931   1.907
  127MEL    H0C 1903   1.925   1.853   1.785
  127MEL    H0D 1904   1.709   1.327   1.742
  127MEL    H0E 1905   1.849   1.411   1.668
  128MEL    N00 1906   2.027   0.638   1.974
  128MEL    C01 1907   1.929   0.635   2.066
  128MEL    N02 1908   1.865   0.516   2.081
  128MEL    C03 1909   1.764   0.518   2.173
  128MEL    N04 1910   1.694   0.404   2.187
  128MEL    N05 1911   1.726   0.625   2.247
  128MEL    C06 1912   1.799   0.738   2.224
  128MEL    N07 1913   1.767   0.848   2.296
  128MEL    N08 1914   1.904   0.748   2.138
  128MEL    H09 1915   2.059   0.550   1.929
  128MEL    H0A 1916   2.078   0.727   1.958
  128MEL    H0B 1917   1.709   0.327   2.119
  128MEL    H0C 1918   1.607   0.407   2.241
  128MEL    H0D 1919   1.823   0.933   2.286
  128MEL    H0E 1920   1.684   0.847   2.359
  129MEL    N00 1921   1.213   1.998   2.645
  129MEL    C01 1922   1.114   2.001   2.737
  129MEL    N02 1923   1.049   2.120   2.752
  129MEL    C03 1924   0.948   2.118   2.844
  129MEL    N04 1925   0.878   2.232   2.858
  129MEL    N05 1926   0.911   2.010   2.919
  129MEL    C06 1927   0.983   1.898   2.896
  129MEL    N07 1928   0.951   1.788   2.967
  129MEL    N08 1929   1.089   1.887   2.810
  129MEL    H09 1930   1.243   2.086   2.601
  129MEL    H0A 1931   1.263   1.909   2.629
  129MEL    H0B 1932   0.894   2.308   2.790
  129MEL    H0C 1933   0.792   2.229   2.913
  129MEL    H0D 1934   1.008   1.703   2.957
  129MEL    H0E 1935   0.868   1.788   3.030
  130MEL    N00 1936   1.846   1.015   0.039
  130MEL    C01 1937   1.945   1.012  -0.053
  130MEL    N02 1938   2.008   0.893  -0.068
  130MEL    C03 1939   2.109   0.895  -0.160
  130MEL    N04 1940   2.180   0.780  -0.174
  130MEL    N05 1941   2.148   1.002  -0.234
  130MEL    C06 1942   2.074   1.115  -0.211
  130MEL    N07 1943   2.107   1.225  -0.283
  130MEL    N08 1944   1.969   1.126  -0.125
  130MEL    H09 1945   1.814   0.927   0.084
  130MEL    H0A 1946   1.795   1.104   0.056
  130MEL    H0B 1947   2.165   0.704  -0.106
  130MEL    H0C 1948   2.266   0.783  -0.228
  130MEL    H0D 1949   2.051   1.310  -0.273
  130MEL    H0E 1950   2.189   1.224  -0.345
  131MEL    N00 1951   2.373   0.115   0.039
  131MEL    C01 1952   2.471   0.118  -0.053
  131MEL    N02 1953   2.535   0.237  -0.068
  131MEL    C03 1954   2.636   0.235  -0.160
  131MEL    N04 1955   2.706   0.349  -0.174
  131MEL    N05 1956   2.674   0.128  -0.234
  131MEL    C06 1957   2.601   0.015  -0.211
  131MEL    N07 1958   2.633  -0.095  -0.283
  131MEL    N08 1959   2.496   0.005  -0.125
  131MEL    H09 1960   2.341   0.203   0.084
  131MEL    H0A 1961   2.322   0.026   0.056
  131MEL    H0B 1962   2.691   0.426  -0.106
  131MEL    H0C 1963   2.793   0.346  -0.228
  131MEL    H0D 1964   2.577  -0.179  -0.273
  131MEL    H0E 1965   2.716  -0.094  -0.345
  132MEL    N00 1966   1.739   1.391   2.645
  132MEL    C01 1967   1.640   1.388   2.737
  132MEL    N02 1968   1.576   1.269   2.752
  132MEL    C03 1969   1.475   1.271   2.844
  132MEL    N04 1970   1.404   1.157   2.858
  132MEL    N05 1971   1.437   1.378   2.919
  132MEL    C06 1972   1.510   1.491   2.896
  132MEL    N07 1973   1.478   1.601   2.967
  132MEL    N08 1974   1.615   1.501   2.810
  132MEL    H09 1975   1.770   1.303   2.601
  132MEL    H0A 1976   1.789   1.480   2.629
  132MEL    H0B 1977   1.420   1.080   2.791
  132MEL    H0C 1978   1.319   1.159   2.913
  132MEL    H0D 1979   1.534   1.685   2.957
  132MEL    H0E 1980   1.395   1.600   3.030
  133MEL    N00 1981   2.079   1.998   0.632
  133MEL    C01 1982   1.980   2.001   0.724
  133MEL    N02 1983   1.915   2.120   0.739
  133MEL    C03 1984   1.815   2.118   0.831
  133MEL    N04 1985   1.745   2.232   0.845
  133MEL    N05 1986   1.777   2.011   0.906
  133MEL    C06 1987   1.851   1.898   0.882
  133MEL    N07 1988   1.817   1.788   0.954
  133MEL    N08 1989   1.956   1.887   0.797
  133MEL    H09 1990   2.109   2.086   0.588
  133MEL    H0A 1991   2.129   1.909   0.616
  133MEL    H0B 1992   1.760   2.308   0.776
  133MEL    H0C 1993   1.658   2.229   0.900
  133MEL    H0D 1994   1.874   1.703   0.944
  133MEL    H0E 1995   1.736   1.788   1.017
  134MEL    N00 1996   1.556   1.015   0.711
  134MEL    C01 1997   1.655   1.012   0.619
  134MEL    N02 1998   1.719   0.893   0.604
  134MEL    C03 1999   1.819   0.895   0.512
  134MEL    N04 2000   1.890   0.780   0.498
  134MEL    N05 2001   1.858   1.002   0.437
  134MEL    C06 2002   1.784   1.115   0.460
  134MEL    N07 2003   1.817   1.225   0.389
  134MEL    N08 2004   1.679   1.126   0.546
  134MEL    H09 2005   1.526   0.927   0.755
  134MEL    H0A 2006   1.505   1.104   0.727
  134MEL    H0B 2007   1.875   0.704   0.565
  134MEL    H0C 2008   1.977   0.783   0.443
  134MEL    H0D 2009   1.761   1.310   0.399
  134MEL    H0E 2010   1.900   1.224   0.326
  135MEL    N00 2011   2.083   0.115   0.711
  135MEL    C01 2012   2.182   0.118   0.619
  135MEL    N02 2013   2.245   0.237   0.604
  135MEL    C03 2014   2.346   0.235   0.512
  135MEL    N04 2015   2.417   0.349   0.498
  135MEL    N05 2016   2.385   0.128   0.437
  135MEL    C06 2017   2.311   0.015   0.460
  135MEL    N07 2018   2.343  -0.095   0.389
  135MEL    N08 2019   2.206   0.005   0.546
  135MEL    H09 2020   2.052   0.203   0.755
  135MEL    H0A 2021   2.032   0.026   0.727
  135MEL    H0B 2022   2.402   0.426   0.566
  135MEL    H0C 2023   2.503   0.346   0.443
  135MEL    H0D 2024   2.287  -0.179   0.399
  135MEL    H0E 2025   2.426  -0.094   0.326
  136MEL    N00 2026   2.606   1.391   0.632
  136MEL    C01 2027   2.507   1.388   0.724
  136MEL    N02 2028   2.442   1.269   0.739
  136MEL    C03 2029   2.341   1.271   0.831
  136MEL    N04 2030   2.272   1.157   0.845
  136MEL    N05 2031   2.304   1.378   0.906
  136MEL    C06 2032   2.377   1.491   0.882
  136MEL    N07 2033   2.344   1.601   0.954
  136MEL    N08 2034   2.483   1.501   0.797
  136MEL    H09 2035   2.636   1.303   0.588
  136MEL    H0A 2036   2.656   1.480   0.616
  136MEL    H0B 2037   2.287   1.080   0.776
  136MEL    H0C 2038   2.185   1.159   0.900
  136MEL    H0D 2039   2.401   1.685   0.944
  136MEL    H0E 2040   2.262   1.600   1.017
  137MEL    N00 2041   1.790   1.998   1.303
  137MEL    C01 2042   1.691   2.001   1.395
  137MEL    N02 2043   1.627   2.120   1.410
  137MEL    C03 2044   1.527   2.118   1.502
  137MEL    N04 2045   1.456   2.232   1.516
  137MEL    N05 2046   1.488   2.011   1.577
  137MEL    C06 2047   1.562   1.898   1.554
  137MEL    N07 2048   1.529   1.788   1.625
  137MEL    N08 2049   1.667   1.887   1.467
  137MEL    H09 2050   1.820   2.086   1.259
  137MEL    H0A 2051   1.841   1.909   1.287
  137MEL    H0B 2052   1.471   2.308   1.448
  137MEL    H0C 2053   1.369   2.229   1.571
  137MEL    H0D 2054   1.585   1.703   1.614
  137MEL    H0E 2055   1.446   1.788   1.688
  138MEL    N00 2056   1.267   1.015   1.382
  138MEL    C01 2057   1.366   1.012   1.290
  138MEL    N02 2058   1.431   0.893   1.275
  138MEL    C03 2059   1.531   0.895   1.183
  138MEL    N04 2060   1.601   0.780   1.169
  138MEL    N05 2061   1.569   1.002   1.109
  138MEL    C06 2062   1.495   1.115   1.132
  138MEL    N07 2063   1.529   1.225   1.060
  138MEL    N08 2064   1.390   1.126   1.218
  138MEL    H09 2065   1.237   0.927   1.428
  138MEL    H0A 2066   1.217   1.104   1.398
  138MEL    H0B 2067   1.586   0.704   1.237
  138MEL    H0C 2068   1.687   0.783   1.115
  138MEL    H0D 2069   1.472   1.310   1.070
  138MEL    H0E 2070   1.611   1.224   0.998
  139MEL    N00 2071   1.794   0.115   1.382
  139MEL    C01 2072   1.892   0.118   1.290
  139MEL    N02 2073   1.957   0.237   1.275
  139MEL    C03 2074   2.058   0.235   1.183
  139MEL    N04 2075   2.127   0.349   1.169
  139MEL    N05 2076   2.095   0.128   1.109
  139MEL    C06 2077   2.022   0.015   1.132
  139MEL    N07 2078   2.055  -0.095   1.060
  139MEL    N08 2079   1.917   0.005   1.218
  139MEL    H09 2080   1.763   0.203   1.427
  139MEL    H0A 2081   1.744   0.026   1.398
  139MEL    H0B 2082   2.112   0.426   1.237
  139MEL    H0C 2083   2.214   0.346   1.115
  139MEL    H0D 2084   1.998  -0.180   1.070
  139MEL    H0E 2085   2.137  -0.094   0.998
  140MEL    N00 2086   2.316   1.391   1.303
  140MEL    C01 2087   2.218   1.388   1.395
  140MEL    N02 2088   2.154   1.268   1.409
  140MEL    C03 2089   2.053   1.271   1.502
  140MEL    N04 2090   1.983   1.157   1.516
  140MEL    N05 2091   2.015   1.378   1.577
  140MEL    C06 2092   2.088   1.491   1.554
  140MEL    N07 2093   2.056   1.601   1.625
  140MEL    N08 2094   2.194   1.501   1.467
  140MEL    H09 2095   2.347   1.303   1.258
  140MEL    H0A 2096   2.367   1.480   1.287
  140MEL    H0B 2097   1.998   1.080   1.448
  140MEL    H0C 2098   1.896   1.159   1.571
  140MEL    H0D 2099   2.112   1.685   1.614
  140MEL    H0E 2100   1.973   1.600   1.688
  141MEL    N00 2101   1.501   1.998   1.974
  141MEL    C01 2102   1.402   2.001   2.066
  141MEL    N02 2103   1.338   2.120   2.081
  141MEL    C03 2104   1.237   2.118   2.173
  141MEL    N04 2105   1.167   2.232   2.187
  141MEL    N05 2106   1.199   2.010   2.247
  141MEL    C06 2107   1.273   1.898   2.224
  141MEL    N07 2108   1.240   1.788   2.296
  141MEL    N08 2109   1.378   1.887   2.138
  141MEL    H09 2110   1.532   2.086   1.929
  141MEL    H0A 2111   1.552   1.909   1.958
  141MEL    H0B 2112   1.182   2.308   2.118
  141MEL    H0C 2113   1.080   2.229   2.241
  141MEL    H0D 2114   1.296   1.703   2.286
  141MEL    H0E 2115   1.157   1.788   2.359
  142MEL    N00 2116   0.978   1.015   2.053
  142MEL    C01 2117   1.077   1.012   1.961
  142MEL    N02 2118   1.141   0.893   1.947
  142MEL    C03 2119   1.242   0.895   1.854
  142MEL    N04 2120   1.313   0.780   1.840
  142MEL    N05 2121   1.280   1.002   1.779
  142MEL    C06 2122   1.207   1.115   1.802
  142MEL    N07 2123   1.240   1.225   1.732
  142MEL    N08 2124   1.102   1.125   1.889
  142MEL    H09 2125   0.947   0.927   2.098
  142MEL    H0A 2126   0.928   1.104   2.069
  142MEL    H0B 2127   1.297   0.704   1.908
  142MEL    H0C 2128   1.398   0.783   1.785
  142MEL    H0D 2129   1.183   1.310   1.742
  142MEL    H0E 2130   1.323   1.224   1.668
  143MEL    N00 2131   1.505   0.115   2.053
  143MEL    C01 2132   1.603   0.118   1.961
  143MEL    N02 2133   1.668   0.237   1.946
  143MEL    C03 2134   1.769   0.235   1.854
  143MEL    N04 2135   1.839   0.349   1.840
  143MEL    N05 2136   1.806   0.128   1.779
  143MEL    C06 2137   1.734   0.015   1.802
  143MEL    N07 2138   1.766  -0.095   1.732
  143MEL    N08 2139   1.629   0.005   1.889
  143MEL    H09 2140   1.474   0.203   2.097
  143MEL    H0A 2141   1.455   0.026   2.069
  143MEL    H0B 2142   1.823   0.426   1.907
  143MEL    H0C 2143   1.925   0.346   1.785
  143MEL    H0D 2144   1.709  -0.179   1.742
  143MEL    H0E 2145   1.849  -0.094   1.668
  144MEL    N00 2146   2.027   1.391   1.974
  144MEL    C01 2147   1.929   1.388   2.066
  144MEL    N02 2148   1.865   1.269   2.081
  144MEL    C03 2149   1.764   1.271   2.173
  144MEL    N04 2150   1.694   1.157   2.187
  144MEL    N05 2151   1.726   1.378   2.247
  144MEL    C06 2152   1.799   1.491   2.224
  144MEL    N07 2153   1.767   1.601   2.296
  144MEL    N08 2154   1.904   1.501   2.138
  144MEL    H09 2155   2.059   1.303   1.929
  144MEL    H0A 2156   2.078   1.480   1.958
  144MEL    H0B 2157   1.709   1.080   2.119
  144MEL    H0C 2158   1.607   1.159   2.241
  144MEL    H0D 2159   1.823   1.685   2.286
  144MEL    H0E 2160   1.684   1.600   2.359
   3.16009   2.25898   2.68473   0.00000   0.00000   0.00000   0.00000  -1.15625   0.00000
