Melamine conventional unit cell (COD 2205105, 14 K neutron structure; LigParGen atom names)
   60
    1MEL    N00    1   0.253   0.483  -0.047
    1MEL    C01    2   0.160   0.486   0.048
    1MEL    N02    3   0.093   0.603   0.066
    1MEL    C03    4  -0.002   0.600   0.160
    1MEL    N04    5  -0.066   0.718   0.185
    1MEL    N05    6  -0.037   0.494   0.233
    1MEL    C06    7   0.036   0.383   0.208
    1MEL    N07    8   0.007   0.274   0.281
    1MEL    N08    9   0.137   0.374   0.120
    1MEL    H09   10   0.288   0.572  -0.084
    1MEL    H0A   11   0.309   0.399  -0.059
    1MEL    H0B   12  -0.065   0.784   0.107
    1MEL    H0C   13  -0.156   0.710   0.231
    1MEL    H0D   14   0.053   0.187   0.258
    1MEL    H0E   15  -0.079   0.271   0.335
    2MEL    N00   16  -0.253  -0.483   0.047
    2MEL    C01   17  -0.160  -0.486  -0.048
    2MEL    N02   18  -0.093  -0.603  -0.066
    2MEL    C03   19   0.002  -0.600  -0.160
    2MEL    N04   20   0.066  -0.718  -0.185
    2MEL    N05   21   0.037  -0.494  -0.233
    2MEL    C06   22  -0.036  -0.383  -0.208
    2MEL    N07   23  -0.007  -0.274  -0.281
    2MEL    N08   24  -0.137  -0.374  -0.120
    2MEL    H09   25  -0.288  -0.572   0.084
    2MEL    H0A   26  -0.309  -0.399   0.059
    2MEL    H0B   27   0.065  -0.784  -0.107
    2MEL    H0C   28   0.156  -0.710  -0.231
    2MEL    H0D   29  -0.053  -0.187  -0.258
    2MEL    H0E   30   0.079  -0.271  -0.335
    3MEL    N00   31   0.268   0.856   0.047
    3MEL    C01   32   0.362   0.859  -0.048
    3MEL    N02   33   0.428   0.976  -0.066
    3MEL    C03   34   0.524   0.973  -0.160
    3MEL    N04   35   0.587   1.091  -0.185
    3MEL    N05   36   0.559   0.866  -0.233
    3MEL    C06   37   0.485   0.756  -0.208
    3MEL    N07   38   0.514   0.646  -0.281
    3MEL    N08   39   0.384   0.747  -0.120
    3MEL    H09   40   0.234   0.944   0.084
    3MEL    H0A   41   0.213   0.772   0.059
    3MEL    H0B   42   0.587   1.157  -0.107
    3MEL    H0C   43   0.677   1.083  -0.231
    3MEL    H0D   44   0.468   0.560  -0.258
    3MEL    H0E   45   0.601   0.643  -0.335
    4MEL    N00   46   0.775  -0.110  -0.047
    4MEL    C01   47   0.681  -0.114   0.048
    4MEL    N02   48   0.615  -0.230   0.066
    4MEL    C03   49   0.520  -0.228   0.160
    4MEL    N04   50   0.456  -0.345   0.185
    4MEL    N05   51   0.485  -0.121   0.233
    4MEL    C06   52   0.558  -0.010   0.208
    4MEL    N07   53   0.529   0.099   0.281
    4MEL    N08   54   0.659  -0.002   0.120
    4MEL    H09   55   0.809  -0.199  -0.084
    4MEL    H0A   56   0.830  -0.026  -0.059
    4MEL    H0B   57   0.456  -0.411   0.107
    4MEL    H0C   58   0.366  -0.337   0.231
    4MEL    H0D   59   0.575   0.185   0.258
    4MEL    H0E   60   0.442   0.102   0.335
   1.04330   0.74580   0.66477   0.00000   0.00000   0.00000   0.00000  -0.28630   0.00000
